LAMMPS data file via write_data, version 5 Jun 2019, timestep = 100000

5184 atoms
2 atom types

0.0000000000000000e+00 2.0091000000000001e+01 xlo xhi
0.0000000000000000e+00 2.0091000000000001e+01 ylo yhi
-1.2173353759825787e+00 3.9700692636358269e+01 zlo zhi

Masses

1 1.008
2 15.9994

Atoms # atomic

843 2 2.7060570625530578e+00 1.6544998281627579e+00 4.1731351029832453e-01 0 1 1
656 2 1.3787075564855369e+00 1.6652221253152004e+00 2.7475518547738238e+00 0 1 0
195 2 3.4197283305208144e+00 2.3531775652021918e+00 2.3183212653208125e+00 0 0 1
1029 2 9.9100724357947545e-01 3.4779724311153211e+00 3.4296712679994101e-01 1 0 1
3696 1 1.0008053337686198e+00 4.0671792779518485e+00 3.7199262298908922e+00 0 3 0
679 2 2.0945293162626308e+00 3.9658799728206793e+00 2.2660768065148305e+00 1 1 0
886 2 4.5551960166929133e+00 4.2250622630316643e+00 2.0013180616324417e+00 1 0 0
3946 1 6.2258588816837501e-01 4.5144687256989773e+00 7.7245287095102420e+00 1 1 -1
4272 1 2.0311763678267361e+00 4.5537339552104972e-01 6.6969775232340139e+00 4 1 0
3647 1 7.6737679486104220e+00 3.8988152375382341e-02 7.4351711560101452e-01 1 -1 0
2538 1 1.5658690432421642e+00 3.2711711302292557e+00 -5.1834827484483659e-01 1 1 0
2878 1 9.5609233640592262e+00 4.1190111592466989e+00 1.7260089777338297e+00 0 2 1
2935 1 5.3858604705251159e+00 1.7843887549748907e+00 4.1622083880767757e+00 0 0 0
3843 1 2.8158235452706268e+00 2.9534196108200614e+00 5.2854521432281159e+00 1 1 1
1063 2 3.3353245865137819e+00 3.7607498032580140e+00 2.4619626333302902e-01 1 0 0
4819 1 4.3790291271122541e+00 1.9314341309551739e+00 9.8856421728669730e-01 3 1 -2
4271 1 9.8918325921975310e+00 3.1969485095276875e+00 -6.5399977499305251e-01 -1 -2 1
5049 1 1.0795169738607654e-02 3.6460918181558903e+00 1.4894801927717181e+00 1 1 0
4708 1 3.5543950361671124e+00 9.9358106842420502e-01 -8.8639883083172122e-01 0 0 1
3573 1 6.0736281306437672e+00 5.5019214293602670e-01 3.6442294367528749e+00 0 -1 0
3831 1 1.0988346053214402e+00 6.3213892464077193e-01 2.8226924035180927e+00 0 -1 2
2628 1 2.5876203236075521e+00 2.9504440180856112e-01 1.4409884492454657e+00 1 0 -1
2911 1 5.7615094868153722e+00 3.1218968665665248e+00 1.2046971923385144e+00 0 0 1
2215 1 5.6084570050214664e+00 3.3017187521977576e-03 8.1813532063055616e-01 0 1 1
1277 2 3.7171829114977913e-02 1.3957450997325118e+00 3.6066469327148987e-01 1 0 1
2773 1 6.6397377041495025e+00 4.5612057219168340e+00 1.7838789845480414e+00 0 0 0
13 2 4.6017258036599298e+00 4.3706446086606174e+00 5.8170730512654671e+00 0 0 0
2843 1 2.5974703729849256e+00 2.3324921076751060e+00 -3.4584997354635372e-01 -1 0 1
2678 1 7.3702263307979425e+00 2.8842950041925575e-01 6.8142325069767651e+00 0 1 0
2851 1 8.7612237249211200e-01 4.8763233818127194e+00 8.6860534447024538e+00 0 0 0
3557 1 6.5092605293947745e+00 2.3404747169473090e+00 4.4735529225734769e+00 2 -1 0
3231 1 2.3463163304198520e-01 2.3359886888450134e+00 4.4304073417071121e+00 -3 0 0
2349 1 4.6450351477621723e+00 7.0969177191271804e-01 6.8622120321872515e+00 0 -2 0
2705 1 6.3188403802995410e+00 4.2903873092558289e+00 7.1522672170858161e+00 0 0 0
4561 1 1.2385582701701199e+00 2.0909593862713614e+00 -5.8708662174118331e-01 -1 0 1
5016 1 2.8371622008500101e+00 1.8112065390900671e+00 1.9202725977980668e+00 2 2 1
3824 1 4.0501593417977935e+00 2.2005054665270074e+00 3.4214804563056234e+00 0 0 1
2157 1 4.8144461580800639e+00 2.5337777513975221e+00 5.1665738117649198e+00 1 2 1
4768 1 6.6046321123609930e-01 9.9260580287352218e-01 1.0574361427472456e+00 1 1 2
1842 1 5.1494266045944688e+00 2.7271847938184708e+00 7.3341208020962956e+00 0 -1 0
4193 1 9.0090699666205118e+00 2.8422527027006543e+00 -9.3406963990857639e-01 -1 0 1
2240 1 4.1413683699810377e+00 2.4397696688757020e+00 6.1124721161732083e+00 0 -2 0
3272 1 8.0133401958746884e+00 3.7725532286717609e+00 1.6509929911110097e+00 -1 0 1
2602 1 8.7164697519039738e+00 4.1253464729598530e+00 8.8322373410738990e+00 0 0 0
3021 1 4.6544868944722797e+00 4.7287787766544760e+00 3.4900345339287311e+00 -1 2 0
37 2 2.9245589744958549e+00 3.3209352404096576e-01 6.4133074124638929e+00 0 0 0
3461 1 7.6223704477837453e+00 2.5109864318833569e-01 4.0526906704281211e+00 0 1 1
4372 1 3.9492999903671500e-01 3.5453721068018060e+00 7.9110412476520491e+00 1 1 0
219 2 9.6181962629120736e+00 1.5609720495066814e+00 7.9868272593741940e-01 0 0 0
3043 1 9.5316487931919252e+00 3.2410273050508018e+00 7.9148428655989118e+00 -1 -2 0
4451 1 5.4162440044332376e+00 1.3889944377558296e+00 -4.9090105237611592e-01 2 0 -1
217 2 5.9185247599110129e+00 4.6593589498229155e+00 4.3849869192835000e-01 0 0 0
1470 2 5.0880628492915276e+00 2.2992113332737256e+00 5.6650816901815682e-01 1 0 1
449 2 8.1238031906996913e+00 3.6283472205313556e+00 -3.0267168732868466e-01 0 0 0
844 2 5.6714091019730288e+00 9.9023709589278741e-01 2.5813981852718446e+00 0 1 1
4823 1 2.0268021118364472e+00 3.0357234105565785e+00 4.7727867804858892e+00 1 1 0
406 2 7.7810647596845595e+00 3.1523083109734404e+00 4.0650764861785929e+00 0 0 1
414 2 8.5581354488584260e+00 3.1010864643880933e+00 2.0030340325868061e+00 0 0 1
227 2 6.1015890759168965e+00 2.9547438481877633e+00 2.1391529132351179e+00 0 0 0
173 2 8.1063181470940222e+00 1.1383854215343405e+00 2.7523488061424182e+00 0 0 1
3355 1 9.9889502497721754e+00 9.1275194060627862e-01 2.8182534276017597e+00 1 1 1
3826 1 7.8067705809056598e+00 1.4519789179065468e+00 5.5275668780582405e+00 0 0 1
3575 1 6.4540843254727278e+00 1.7814748724741050e+00 3.1962790859140133e-01 -2 0 -1
2130 1 7.0642389983121143e+00 4.1337632787923564e+00 5.4065237153429146e-02 -1 -1 1
3291 1 4.1046942914852984e+00 4.9438501086816000e-01 3.8336204304334505e+00 2 0 0
4980 1 8.7790290352561335e+00 4.6154257015649494e+00 -5.7118112944395683e-01 2 1 0
4383 1 6.6789146037934399e+00 4.2296332278819024e+00 -9.1097809563087795e-01 1 1 0
4967 1 6.0420226697303230e+00 2.0299998651513276e+00 2.6106586767618873e+00 1 0 1
878 2 7.3306558492337262e+00 1.5717439172192078e+00 4.8993101972949260e-02 1 0 0
4732 1 7.4520712874604147e+00 2.1362075070308593e+00 2.9443189838255579e+00 0 2 1
3111 1 5.9735731823012479e+00 7.1986558197406536e-01 8.5446953565202186e+00 0 -2 0
1087 2 9.8313102767083933e+00 9.6128047474573175e-01 7.6466576386219192e+00 0 0 0
2235 1 1.6519453465830196e+00 2.7013112655498190e+00 2.1238147801642149e+00 0 1 -1
1990 1 9.7463071514429132e+00 3.1571179903686222e+00 3.0757010475584723e+00 -1 -2 1
1940 1 4.7952221656055016e+00 7.6817691448840253e-01 2.6249428517536275e+00 0 1 0
1504 2 6.4487676645476215e+00 3.1904543358684418e+00 6.2914683704947780e+00 0 1 0
870 2 8.7610244593376301e+00 3.6400050245661597e+00 6.0031565046955562e+00 0 0 0
2808 1 8.9159838810588674e+00 1.2322347542995566e+00 1.7427498441599081e+00 0 0 0
1761 1 4.3532794057274632e-01 1.7430895855277966e+00 5.5402240007386050e+00 1 0 0
2114 1 7.6465971621550075e+00 2.9531933801222605e+00 1.4839275358902859e-01 1 -1 1
2598 1 2.2066965975665744e+00 8.3955165807353815e-01 4.2362265480196148e-01 0 0 1
2876 1 2.4733197471436648e+00 4.8035246229086398e-01 8.0524538633551579e+00 2 1 0
4777 1 3.6207139565939324e+00 4.0028159149191742e+00 1.5423147902422909e+00 2 0 0
3878 1 3.2819831266809412e+00 4.1199908516335002e+00 7.8406791437444561e+00 2 0 1
4978 1 4.5987729339439234e+00 3.0516655238622405e+00 1.7564531576666620e-01 -4 -1 1
2587 1 8.9247043083040811e+00 4.2819026637525379e+00 5.2441471453919624e+00 -1 0 2
3274 1 7.8210582807170477e+00 4.0601484832459329e+00 3.5846768320843276e+00 -1 1 1
3722 1 3.8366197065700516e+00 4.2661505628709833e+00 4.7055422806434777e+00 1 0 1
10 2 3.2775829043313909e+00 5.7420115647907763e-02 2.7478462531156720e+00 0 0 0
3530 1 2.8974882566232205e+00 4.4990157648464759e+00 -1.1668509722130627e-01 -1 -2 0
3704 1 9.1021919323621461e+00 1.6910810845223163e+00 3.3158482675282821e+00 0 1 1
1775 1 6.5939870383733750e+00 2.5957202472501404e+00 8.3948908363879777e+00 0 1 0
4064 1 6.2745736267222165e+00 3.5829601700593772e+00 2.8341902724424415e+00 0 2 1
3510 1 3.3903925268328736e+00 4.0076001514614559e+00 6.4114003374865236e+00 0 -1 0
3708 1 4.0790729360924534e+00 3.9512581276527396e+00 -7.3404331440739035e-01 1 1 0
2792 1 1.4735818232380580e+00 4.7056812973584847e+00 2.4542750822210699e+00 2 4 1
211 2 4.7509697217670341e+00 1.4659191592921841e-01 4.4647966910757058e+00 0 0 0
12 2 6.2577774128011585e+00 1.2094274226392319e+00 7.7266825926203673e+00 0 0 0
4206 1 6.9443960097467654e+00 3.9184599565913025e+00 5.6035488621913538e+00 1 0 0
3810 1 2.0106844160519262e+00 4.3634215903420497e+00 1.4406043446607901e+00 2 0 1
4414 1 7.2632407510627779e+00 4.3199740891289556e-01 2.1086713656334655e+00 1 2 0
60 2 2.8310712388916586e+00 1.5599526461190532e+00 4.3335403151471548e+00 0 0 0
419 2 9.5672968880341469e-01 3.0846604226659329e+00 4.0247322449297762e+00 0 0 1
1528 2 2.9126268597548686e+00 1.4975713984236407e+00 8.2120105436764845e+00 1 1 0
1572 2 1.4421546047928713e+00 3.0611961914955086e+00 7.6971715100815565e+00 1 1 0
25 2 4.6015178511188832e+00 2.7825740394486593e+00 4.1179552936212822e+00 0 0 0
903 2 3.1916749972314138e+00 2.9395468881310372e+00 6.4611043179171190e+00 1 0 0
26 2 4.9661946427479347e+00 1.5586087605252210e+00 6.0793042615302140e+00 0 0 0
676 2 4.6385475385521646e+00 3.2315720932452501e+00 8.0939525362941733e+00 0 1 0
869 2 1.2160208772768277e+00 1.6478107190935474e+00 6.0791700822984893e+00 1 0 0
642 2 1.3399068925796265e+00 4.3695541891645053e+00 6.1075328525984931e+00 0 1 0
3278 1 5.9006273515471301e+00 1.3561992307311961e+00 5.5339217124303985e+00 -1 1 0
31 2 6.7938838855346528e-01 1.8061441064344455e-01 4.9375776369669309e+00 0 0 0
3526 1 2.0150047447307623e-01 2.2235167770509223e+00 1.9709109798556335e+00 0 1 0
4534 1 1.1707697809784336e+00 2.3972451017007370e+00 6.8569844344307906e+00 2 0 0
178 2 3.0736278820570009e+00 4.1346293490052552e+00 4.0213401257811077e+00 0 0 1
4696 1 5.2575843239400433e+00 4.3040375019367998e+00 4.6575284926368639e+00 -1 3 0
4362 1 8.0712459908175695e+00 3.0063155567102138e+00 2.7643099952657555e+00 -1 2 1
4114 1 4.4461829098834305e-01 3.3299440235024713e+00 5.9324118773317327e+00 1 3 1
2407 1 2.0263347639053895e+00 1.6427752435770233e+00 3.8474358656371699e+00 -1 2 0
2406 1 1.8728685371971101e+00 1.3364156918323566e+00 5.0912547886054140e+00 0 0 0
3695 1 7.9667345112700305e+00 1.6452533947775918e+00 5.1039086323684502e-01 2 1 1
3321 1 4.2272117886253220e+00 1.6924456663815277e+00 8.7058354349878631e+00 -1 1 1
57 2 2.9860583101904288e+00 4.9913306116101301e+00 7.7204134480732325e+00 0 0 0
1871 1 4.8960592501924509e+00 4.0683079981178167e+00 8.5127395516683446e+00 0 -3 0
4007 1 9.5600468449530940e+00 1.7016714745971373e+00 6.2988813095662683e+00 0 1 1
4502 1 5.3232323018685843e+00 1.5332582963822772e+00 7.4734867539289489e+00 1 3 1
3130 1 6.6645213596369723e+00 7.8999130255686389e-01 -6.1926428580581350e-01 -1 1 0
2195 1 9.2041353449244205e+00 2.2241743057052217e+00 5.0650431078578850e-01 0 1 0
3363 1 3.8920417520200372e+00 2.7983913750487357e+00 1.5001500899814308e+00 -1 2 0
2586 1 6.1961199775449183e+00 4.8146063096145584e+00 6.1605781775382775e+00 2 0 1
21 2 5.6360493088797252e+00 4.5720091251269492e+00 3.7239006186161960e+00 0 0 0
2246 1 1.8520443079133537e+00 3.0169617593763900e+00 6.2368703374160095e-01 0 1 1
2584 1 7.8487953641209696e-01 4.3370198008387426e+00 -3.7471538917222869e-01 3 1 1
3016 1 3.3703815217103967e+00 3.4429524794455091e+00 3.3492640788976171e+00 1 0 2
1531 2 8.2137867342537181e+00 1.5300876892025643e+00 6.4664461502060320e+00 0 1 0
2466 1 3.5142011954646497e+00 1.3326989168352850e+00 7.3146730611069675e+00 -1 0 0
1764 1 8.3227803832248117e+00 3.5278270649021408e+00 7.1399881368585270e+00 2 1 -1
2625 1 8.3297437957066194e+00 1.7857989963411294e+00 8.4207832577111663e+00 -2 0 0
1065 2 8.8351943764926890e+00 2.8012960807521181e-01 4.5330606898695898e+00 0 0 0
651 2 8.2042596039393114e+00 2.8212393804524107e+00 8.0897932943717024e+00 0 1 0
3 2 6.6190160002013156e+00 1.4634078792136080e+00 4.7325525575392273e+00 0 0 0
4541 1 8.8402936533687289e+00 3.1312018518260305e+00 4.4809870714685109e+00 0 0 1
4663 1 5.3256975725365967e+00 4.7623406155783679e+00 -4.7921539033605987e-01 2 0 1
3673 1 1.9415160753885059e+00 3.4856809625202416e+00 6.6194195830327134e+00 1 0 -1
4643 1 8.7973376838464326e+00 4.6887018175346658e+00 6.8781768945084849e+00 2 0 0
3100 1 7.2522629326397681e+00 2.4651208283881556e+00 6.4995025893796710e+00 -1 -1 0
34 2 6.7061804846662953e+00 4.7801666419458542e+00 7.9434722211424180e+00 0 0 0
4493 1 8.7713683336698427e+00 2.6294744993914332e+00 5.8567857516903850e+00 1 -1 0
3522 1 1.9713254006352130e+00 4.2817566229786497e+00 4.8001197267355291e+00 1 -1 -1
658 2 1.1718271660490340e+00 6.1529298737216333e-02 7.8157373289617045e+00 0 1 0
1483 2 4.5954572540440113e+00 2.5720210530908372e-01 6.8099254975898504e-01 1 0 1
3201 1 5.0958553758689522e+00 4.4320080297596753e+00 7.0638695051336864e-01 1 0 1
4199 1 4.9995589153239486e+00 3.7237919248325393e+00 6.5543388944372794e+00 0 0 0
4341 1 7.4704019203524119e-01 1.6428956514513102e+00 8.9016077894355039e+00 1 1 -1
3084 1 1.0039835452319146e+01 5.0193293857609733e+00 4.3077493779990057e+00 -1 0 1
5054 1 6.9494850791520948e+00 1.0587612169040028e-02 5.4705330552778504e+00 0 0 1
2818 1 5.0171284352058159e+00 6.4469108253543794e-02 -5.7823290033318164e-01 -1 0 0
53 2 3.0161991096479528e+00 1.4788353714672833e+00 1.1408915250337692e+01 0 0 0
55 2 1.4203992017072533e+00 1.4684054963982809e+00 1.2802345829821327e+01 0 0 0
61 2 3.2151002041556129e+00 3.0771516083018962e+00 1.3058972483762661e+01 0 0 0
54 2 4.8777971744344661e+00 1.3451284429055534e+00 1.2935505079786298e+01 0 0 0
52 2 1.2815803691339416e+00 2.9439409993613963e+00 1.1236485232127347e+01 0 0 0
58 2 4.7129316302681303e+00 3.2318434704875840e+00 1.1090877249879416e+01 0 0 0
56 2 2.9757743187970744e+00 3.2992079508606942e+00 9.5890897518692970e+00 0 0 0
3405 1 2.4936817062804697e+00 2.6163289140758148e+00 9.1257670362639161e+00 1 0 1
28 2 4.7788381102972677e+00 1.5332423118590059e+00 9.6597883582844020e+00 0 0 0
51 2 1.1396186388252469e+00 1.3287639884731026e+00 9.8154382088434478e+00 0 0 0
4061 1 6.9417315330859815e+00 3.4918463830477502e+00 1.6994574268854645e+01 2 -1 0
3312 1 9.0206397650766483e+00 1.0571451699457621e+00 1.6959613347824458e+01 -3 -1 0
2183 1 5.4054106496474530e+00 3.0269147227360835e+00 1.0629254500714943e+01 -1 0 0
2011 1 6.9030464221430892e+00 2.3036536879119196e+00 1.7943698304898277e+01 0 -1 1
2045 1 6.9639215498860341e-01 1.0191844895158289e+00 1.0714441911161607e+01 0 2 1
724 2 4.7016523259466991e+00 3.6701591560953185e-02 1.7643009023262643e+01 0 1 0
3339 1 1.0028915660346383e+01 4.0523542055761608e+00 1.7032177734800253e+01 0 -1 0
2096 1 8.8796351246674643e+00 2.6737751351454535e+00 1.7309137058497051e+01 1 -2 0
4157 1 3.1188151978396923e+00 6.1803082838315881e-01 1.3640177518810601e+01 0 0 1
2154 1 7.8148793036630373e+00 3.5535590922938285e+00 1.1763049123521780e+01 0 2 1
4091 1 3.1688389936863022e+00 2.8689230927060501e+00 1.0432101877650814e+01 0 0 1
3740 1 2.5692763953410105e+00 2.5407928311184489e+00 1.3588905023878597e+01 2 -1 0
2371 1 5.5267393803249023e+00 1.3282891294177590e+00 1.2151345586067396e+01 -1 1 0
4144 1 7.3150580444872633e+00 3.2905318751110166e+00 9.8753538157019580e+00 2 -1 2
2827 1 1.4959640733704276e+00 4.7142436197720716e+00 1.3390730237424643e+01 0 0 1
5086 1 2.1788312014237547e+00 3.5339415785668806e+00 1.3094616797456174e+01 0 1 1
3601 1 8.3116560106887754e+00 1.7576870884897142e+00 1.2045607923261468e+01 -1 -3 0
5089 1 7.1741764618740849e+00 2.7920950283028323e-01 1.7149886183524444e+01 2 3 1
3459 1 7.2726966324833597e+00 1.6901259372579398e+00 9.4200921769474810e+00 1 -1 -1
1963 1 5.8309152471452066e+00 1.9583398955339126e+00 1.8826662163699829e+01 1 0 1
4529 1 4.0679045837459349e-01 2.8576004803310036e+00 9.8701812468422503e+00 0 2 0
3091 1 4.2571078917526317e-01 4.1076422289952292e+00 1.4050138727429127e+01 0 2 1
3870 1 4.6422156014493270e+00 8.7383442585402382e-01 1.8470986944351612e+01 2 1 0
5020 1 2.1866671121455261e+00 2.7835891841761358e+00 1.1420903814377334e+01 1 2 0
3164 1 3.2562733886368913e+00 3.9717731355854244e+00 1.4521023814251828e+01 1 2 0
4890 1 3.7828823777177094e+00 3.9795326897989086e-01 1.8320558370900244e+01 -1 0 -1
2151 1 5.6486666381826902e+00 4.9728041374614413e+00 1.0327295212651073e+01 0 2 1
2523 1 4.1943077466590655e+00 9.4754995716963120e-01 1.6169659589083864e+01 1 0 0
261 2 3.2452464108984445e+00 4.9538756267166413e+00 1.4311488698108375e+01 0 0 0
5127 1 3.9870029379666492e+00 2.8130694436621029e-01 1.1444307078855520e+01 -1 0 1
240 2 4.7304826567389355e+00 4.7834042249880753e+00 9.5114455932241206e+00 0 0 0
2132 1 1.9968614791695354e+00 1.1221133640993168e+00 1.0025679404995770e+01 0 0 0
2193 1 7.2830981002274680e+00 4.4419555154565753e+00 9.4585287513661438e+00 -2 -1 0
4794 1 4.2549818781905540e+00 4.7413153545260460e+00 1.5139271780957646e+01 -1 3 0
726 2 1.1003678059771538e+00 4.5451606210921774e-01 1.7464747848446276e+01 0 1 0
2099 1 3.4916967781061712e+00 4.0438008298233479e+00 9.7989077477686060e+00 -1 0 0
4700 1 5.4618511110214669e+00 1.1813697944339498e+00 1.0639018740867147e+01 0 0 0
2732 1 1.7784737340001333e+00 4.0864410482979974e+00 1.6540634316350726e+01 0 -2 -1
4239 1 1.2806205843024754e-01 4.4074894071954542e+00 1.5975325303459478e+01 0 2 0
1806 1 9.2842211796463481e-01 1.4146571314108480e-01 1.8498171409165728e+01 0 0 0
3408 1 7.7711085592618190e+00 2.0155778448758430e+00 1.6178005668994597e+01 2 -1 0
2471 1 1.7377065955785980e+00 4.0987917564620826e+00 1.1617496988564586e+01 0 0 0
1501 2 9.5792848279829954e+00 3.0201299779741189e+00 9.3998846290117513e+00 0 1 0
3908 1 4.2289293630035441e-01 1.2861670257950375e+00 1.7443266280211599e+01 0 0 -1
4050 1 7.7042362519447973e+00 4.7901308937902964e+00 1.7066687608732529e+01 0 2 -1
4110 1 8.8276570410199362e+00 1.3800984039783470e+00 1.8381158314221807e+01 1 0 1
5176 1 6.8215998041770671e+00 4.1632627231026289e+00 1.3241454054795204e+01 1 -1 1
2635 1 8.6993380457449643e+00 3.1798396376514249e+00 1.0047446258178196e+01 1 -1 0
42 2 6.2819369523271984e+00 3.2270860677045237e+00 9.3951987308928295e+00 0 0 0
1556 2 9.6440373582826009e+00 1.2624430140361371e+00 1.1088117807831340e+01 0 1 0
912 2 8.1054336233999269e+00 1.2547922720005544e+00 9.6221159955049522e+00 0 0 0
64 2 6.5044212894453279e+00 1.3069803550414814e+00 1.1034458344801497e+01 0 0 0
65 2 7.9422898696220123e+00 1.2502251039012444e+00 1.2725757949465528e+01 0 0 0
73 2 6.2239125494224385e+00 3.0716070581184045e+00 1.2474909223871242e+01 0 0 0
98 2 8.0865014360502769e+00 3.0440385759461308e+00 1.0938717907493164e+01 0 0 0
70 2 9.5894836318586023e+00 3.1199996805534527e+00 1.2843983759100468e+01 0 0 0
2604 1 7.1933254609970803e+00 1.8721599278561374e+00 1.4375358856380473e+01 -3 3 0
4236 1 8.1998026063447309e+00 9.9711400188131127e-02 1.4859073586543520e+01 1 3 0
2665 1 7.2104718143818163e+00 4.1163738802706309e+00 1.8458737216303657e+01 0 0 -1
62 2 1.4471034645726755e+00 4.9567343708198530e+00 1.2460065293583378e+01 0 0 0
2306 1 1.8370226098190203e+00 3.3010150983368414e+00 1.5102670730742776e+01 -3 1 1
3570 1 3.7448927188413443e+00 2.7206649570151384e+00 1.6112215746672103e+01 1 0 -1
1913 1 8.7924329822752139e+00 1.3838494246062210e+00 1.3546296250049162e+01 2 0 0
2269 1 6.9992049400738656e+00 2.3243430151880787e-01 9.5777382622446812e+00 0 -1 -1
5151 1 6.8977460289759609e+00 2.1811478301344769e+00 1.1322292652383586e+01 -1 2 1
721 2 1.2780476695329324e+00 5.9653368952327562e-02 1.4179538380845116e+01 0 1 0
3028 1 7.4631541129730294e+00 4.6867728280999357e+00 1.1843829363476539e+01 0 -1 0
4238 1 5.1845277132852550e+00 7.8154540553152307e-01 1.4260225033875198e+01 -3 0 1
2607 1 1.9350216200025598e+00 5.6677634167632807e-01 1.4886916055360977e+01 0 -1 0
3546 1 5.3798503892561946e+00 3.1115230923370758e+00 1.1998095061635217e+01 2 0 0
3716 1 2.1660403666326138e+00 2.8355818616322628e+00 1.8201513622224923e+01 0 -1 0
92 2 4.8569295182466652e+00 4.6285674903764988e+00 1.5933126129500742e+01 0 0 0
3095 1 8.1562391949959567e-01 1.7970077218001452e+00 1.3636716697426783e+01 2 0 1
4717 1 2.8349077602558248e+00 1.5421689130787755e+00 1.6982036414341504e+01 -1 1 0
4187 1 2.2126592950175281e+00 2.2235425420445094e+00 1.5921811752224659e+01 -1 0 0
5117 1 8.9084674744771526e+00 4.2309076561707135e+00 1.5075417786431814e+01 0 -1 0
1778 1 9.1169522721844274e+00 2.2606584140009689e+00 1.4559963005314160e+01 0 -2 0
5116 1 1.9412565883562953e+00 1.1501256446300945e+00 1.7612189767884555e+01 1 2 1
4861 1 5.1356888920404060e+00 3.6017012892705904e+00 1.4604245048266630e+01 -1 0 -1
2704 1 4.6494195472869126e+00 1.9633710963744568e+00 1.7195386153055150e+01 -2 1 0
2388 1 7.9353126082593288e+00 2.5914247754621349e+00 1.8977401635693063e+01 -2 1 0
4053 1 5.1581577096523032e+00 3.8075491321645227e+00 1.7757002185455182e+01 2 -1 0
3361 1 8.6605589218151486e+00 4.2916141418228957e+00 1.3518399211834241e+01 -1 -1 0
2028 1 6.3936678680710779e+00 2.2273719772055935e+00 1.3350674434489189e+01 -1 0 0
3606 1 5.9665517513826742e+00 4.2056323706119132e+00 1.5988751896799844e+01 1 -1 0
2106 1 1.1725777862326055e-01 2.9302441938375678e+00 1.6413543829604595e+01 -1 2 1
4999 1 9.1640182742591438e+00 2.3206975876995526e+00 1.2485466453705936e+01 -1 0 0
2102 1 7.0343509841523542e+00 7.8305929532941598e-01 1.1522892040656357e+01 2 -2 2
96 2 4.9225736712293520e+00 2.8091858974061341e+00 1.4305040489232837e+01 0 0 0
74 2 3.0556323238501224e+00 1.3639198016811338e+00 1.4335489649284819e+01 0 0 0
81 2 1.2896115205016854e+00 3.6899687658584783e+00 1.4304754079515982e+01 0 0 0
75 2 1.3660606371581039e+00 1.7177679679916040e+00 1.5880293323174882e+01 0 0 0
77 2 2.9093765495174733e+00 2.0533316801853005e+00 1.7852818449121916e+01 0 0 0
79 2 3.0596166566304346e+00 3.2986914764808830e+00 1.5700917743297339e+01 0 0 0
86 2 1.2762777534889393e+00 3.3162154642013340e+00 1.7656182187722344e+01 0 0 0
83 2 4.4335266898459187e+00 3.2516517018006432e+00 1.7781524257033656e+01 0 0 0
87 2 4.7870783587306844e+00 1.6509512313460972e+00 1.5912732546202307e+01 0 0 0
4597 1 3.8900376082508270e-01 3.6086445369708269e+00 1.7960286074321957e+01 -1 3 0
3218 1 3.5520414011432693e+00 4.5456415093091600e+00 1.8960277372080412e+01 0 2 -1
3088 1 3.8573159300739861e+00 1.1441224937995096e+00 1.2359424813287550e+01 -1 3 -1
2369 1 9.3991021052453103e+00 3.5814205393056402e+00 1.8683745184337212e+01 -1 -2 1
2464 1 9.6314156565521074e+00 3.6344690399322732e+00 1.1833740306633704e+01 -2 -1 -1
3859 1 4.4019205815322540e+00 4.5752136602687870e+00 1.1424286735885845e+01 1 2 1
948 2 9.5003717730504462e+00 4.7432745131721283e+00 1.7427446571696017e+01 0 0 0
4264 1 3.9777188002011097e+00 4.0907784633626747e+00 1.7366908728462036e+01 -1 1 0
4288 1 5.7515982224932598e+00 2.2817098798051387e+00 1.4548264329399720e+01 1 0 0
4446 1 8.7910600119285967e+00 2.5189875729720401e+00 1.5753120472015148e+01 0 -1 0
313 2 4.8138678304116063e+00 4.8353889249437900e+00 1.2447699458448753e+01 0 0 0
88 2 8.3027524160766291e+00 1.3589467009244076e+00 1.6181530980971875e+01 0 0 0
1944 1 6.3893844218668274e+00 9.8829765833328864e-01 1.5432760696954144e+01 1 -1 0
2789 1 7.1578972339047473e+00 3.3956952369972249e+00 1.5249075634615949e+01 1 0 0
3845 1 3.9530827477890225e+00 2.4092497126424717e+00 1.2866514318247756e+01 1 -1 0
91 2 6.1129257931837966e+00 1.7410293516187927e+00 1.7779596256712086e+01 0 0 0
3588 1 5.1835770549911853e-01 1.5348336757247967e+00 1.2538095857026464e+01 -1 0 0
286 2 6.0038511446303371e+00 4.9601466653287103e+00 1.4306976468087512e+01 0 0 0
3764 1 9.3450559184263948e+00 6.8263034826927815e-01 1.5233815748417651e+01 1 0 0
4468 1 2.1928799605453926e+00 1.5806538111318218e+00 1.1873698792104182e+01 3 -1 1
2161 1 3.8325683701516833e+00 1.9924233226700985e+00 1.4439147862849973e+01 -1 -1 1
3793 1 6.3285144996007849e+00 2.2836971149986640e+00 1.6626440095394376e+01 1 -1 0
59 2 2.8080149160872976e+00 4.9036556025444451e+00 1.1042684799726990e+01 0 0 0
2630 1 1.4150870243981930e+00 3.8832543694774304e+00 1.0844806141788919e+01 -1 1 1
95 2 8.0513703274733697e+00 2.8418551288263245e+00 1.4462809145895015e+01 0 0 0
718 2 3.0243642273111355e+00 2.7560423428785830e-01 1.6299497490443848e+01 0 1 0
89 2 6.6347398006758098e+00 1.1005470116764338e+00 1.4588313619234103e+01 0 0 0
2642 1 2.7254003863235932e-01 1.8521566416145616e-01 1.4868924925774376e+01 0 1 -1
4480 1 6.8897767030819104e+00 4.8290069764060233e+00 1.5018919342670632e+01 -1 1 -1
94 2 7.9180677516656033e+00 4.8168673408333813e+00 1.5744925519531687e+01 0 0 0
1864 1 5.5288947684786738e+00 2.2983912347339293e+00 9.4562264660283422e+00 0 0 0
69 2 6.7289184775412982e+00 4.8598333312045883e+00 1.1005776697145045e+01 0 0 0
5170 1 9.3886795979285260e+00 1.7415059667193027e+00 1.0070636697784417e+01 1 0 0
93 2 6.4345171384502153e+00 3.2089594453234787e+00 1.5962731207038797e+01 0 0 0
4159 1 4.9341544349459801e+00 1.1155473736558286e-01 1.5609306667357142e+01 -1 -1 1
2086 1 8.1689934051727811e+00 2.9431737563654803e+00 1.3357596075424262e+01 -1 0 0
942 2 9.4808885118928732e+00 4.9372500921465470e+00 1.4370285093800272e+01 0 0 0
80 2 1.2088101619461979e+00 4.8432025791067161e+00 1.6102401065858125e+01 0 0 0
2043 1 4.3128453264743207e+00 4.0041006187822124e+00 1.2476555605004719e+01 -1 2 -1
78 2 9.6213087641296919e+00 1.2695308913714982e+00 1.4386765571378753e+01 0 0 0
66 2 9.6462250878274070e+00 2.9481633405706136e+00 1.6059748701126015e+01 0 0 0
68 2 9.6494076193759248e+00 1.5339567459719021e+00 1.7938423723317072e+01 0 0 0
90 2 7.9412546367855983e+00 2.8274321263505096e+00 1.7710038628940222e+01 0 0 0
67 2 6.4482721182628087e+00 4.6448832730852212e+00 1.7640136321795808e+01 0 0 0
76 2 9.6295068274149038e+00 4.6749933102921757e+00 1.1120417989723927e+01 0 0 0
4219 1 8.6751945292522379e+00 4.6581122489642128e+00 1.6414242042159554e+01 1 -1 0
3367 1 7.4252971122545803e+00 6.8436492684243255e-01 1.8603680055518272e+01 0 0 0
85 2 2.9271250385814747e+00 4.8080590098847740e+00 1.7783590435219747e+01 0 0 0
3212 1 1.1776013008048418e+00 6.4623782792219764e-01 1.5618621842153217e+01 1 1 0
71 2 7.7950471356161701e+00 4.7395703129664071e+00 1.2927196607509458e+01 0 0 0
4563 1 8.7162100711000861e+00 4.7444641075126421e+00 1.0474106744838716e+01 0 2 0
4094 1 3.3772022471250800e+00 2.8975137126008510e-01 1.0142964881056567e+01 0 -1 1
2793 1 3.2269584722209759e+00 4.4924252245417611e+00 1.6867101260820586e+01 0 0 0
4339 1 5.8208162255444185e+00 4.8168702146580076e+00 1.2364353483161031e+01 0 1 -1
4852 1 5.9118447365952624e+00 4.8766809863285348e+00 1.8487510039211585e+01 0 -2 -1
39 2 8.2392232511272372e+00 5.0193959641417445e+00 9.3284634929986670e+00 0 0 0
3493 1 6.4301761072133132e+00 2.0348911589258023e-01 1.3846179957970486e+01 0 0 -1
4844 1 7.4720596453492960e-01 4.3375580259346833e+00 1.9227504007290275e+01 0 2 -2
4256 1 2.3176319103422447e+00 3.4105914554175212e+00 1.9179559535226890e+01 0 -1 1
3720 1 3.9578387253612575e+00 2.5208380112336948e+00 1.9220633722852842e+01 2 2 0
102 2 2.5974924560085690e+00 1.4917992161564548e+00 2.1068976790934645e+01 0 0 0
104 2 6.1888798253268307e-01 1.7162923576332736e+00 2.2873252437174063e+01 0 0 0
106 2 7.8237590932458745e-01 3.3406815709704825e+00 2.0971740594165514e+01 0 0 0
110 2 2.5740349072750504e+00 3.2143069533519522e+00 2.2968952220742601e+01 0 0 0
107 2 4.4641275522577057e+00 3.1699736392187003e+00 2.1566962653127931e+01 0 0 0
103 2 4.0575583771215342e+00 1.2542061696881297e+00 2.2800743826418834e+01 0 0 0
4812 1 5.6150293647513418e+00 4.9159921709066854e+00 2.6658667130019023e+01 2 2 0
4968 1 1.5873996144904707e+00 1.9748154075956046e+00 2.0197039202769982e+01 -1 0 0
2539 1 5.0090124160749705e-01 4.5192475947205839e+00 2.4779846358991900e+01 2 0 0
3600 1 5.8402614176397236e+00 1.6429258181517796e+00 2.1902771993522375e+01 3 -1 -1
4103 1 2.6065266525487552e-01 7.6517704549619359e-01 2.2923107172425986e+01 2 0 -1
2649 1 9.7372518294975929e+00 1.5126328225442470e-01 2.2227790959186027e+01 -1 1 0
5026 1 9.0693806905606085e+00 1.0506973767691501e+00 2.5331811490747825e+01 -1 2 0
3883 1 5.5571489294942262e+00 3.0908876101139837e+00 2.2002453678818146e+01 0 1 1
2500 1 5.3043579682092235e+00 3.4060221389620327e+00 2.4917944395841570e+01 -1 2 1
2971 1 4.5737422465438184e+00 1.2765985871610712e+00 2.6876521087946347e+01 2 2 -1
2781 1 5.2854088663188588e+00 4.0593183886909658e+00 1.9662148407575458e+01 1 1 0
4337 1 2.2595361354689185e+00 7.6329913803780236e-01 2.8527617382860736e+01 1 0 -1
100 2 4.3648512836510482e+00 1.3761476468310494e+00 1.9376581172943723e+01 0 0 0
3706 1 8.4883097143127344e+00 2.6665398098353013e+00 2.3477197851664705e+01 -1 0 0
5120 1 1.6518935763924514e+00 2.6659870806036867e+00 2.3410702053908050e+01 0 1 0
3319 1 2.0234428920683447e+00 1.1939933321590883e+00 2.3502397042015200e+01 -2 0 -1
2008 1 9.2238370317287934e+00 1.6463940651403774e-01 2.6998838972517259e+01 1 1 0
999 2 9.8772840157697015e+00 2.9589026382857782e+00 2.7881881289300008e+01 0 0 0
4781 1 8.3424578782864760e+00 6.3853927895937301e-01 2.8087538544541591e+01 0 2 0
5055 1 5.8899937051984699e+00 2.4193367138230908e+00 2.0028604373847770e+01 -1 0 0
2175 1 9.7661670867854387e+00 4.5284908940244117e-01 2.3970118852912428e+01 -1 -2 0
4058 1 2.5401399616515525e+00 2.7571821106858025e+00 2.2123180448679179e+01 2 0 0
755 2 9.4191241304161444e-01 1.7175755076919613e-01 2.1216980054866529e+01 0 1 0
105 2 3.0813255566978990e+00 3.2175493866454565e+00 1.9855051827263487e+01 0 0 0
127 2 9.8879001622932670e+00 1.4453315666173703e+00 2.4793472320216040e+01 0 0 0
4730 1 8.1578772455216146e+00 6.4642409685799673e-01 2.4157217814240493e+01 1 1 -1
4992 1 2.1014342455579453e+00 2.1141176593775932e+00 2.5321569038050903e+01 1 -1 0
2690 1 6.9270506609016049e+00 1.3841460921539455e+00 2.0257200945780809e+01 1 1 0
5124 1 9.8946324180465925e+00 4.2953494093856799e+00 2.7933976757088445e+01 -1 1 0
3454 1 9.2795404154369177e+00 4.7871779047516888e-01 2.9349582735252934e+01 0 1 1