LAMMPS data file via write_data, version 5 Jun 2019, timestep = 11203

5184 atoms
2 atom types

-8.0619434728960293e-01 1.9212092277976140e+01 xlo xhi
-8.1434790375967836e-01 1.9406396393135289e+01 ylo yhi
-9.6104320666018594e-01 3.9444400467036417e+01 zlo zhi

Masses

1 1.008
2 15.9994

Atoms # atomic

887 2 1.5535122453642529e+00 2.3283814643375829e+00 2.2439282911322116e+00 1 0 0
817 2 1.4553699094048733e+00 1.0132207768990487e+00 5.2120257162254524e-01 0 1 1
639 2 3.5803378765572749e+00 -1.0847211744499519e-01 6.6661994615829379e-01 0 1 0
7 2 3.2622462652169490e+00 2.1816991817258486e+00 7.0351215445109516e-01 0 0 0
641 2 1.2503308735998293e+00 2.1530727272909345e-01 2.4129592464225684e+00 0 1 0
3419 1 6.1212876655902093e-01 -3.9039935228529443e-02 4.2188379493167849e+00 0 0 1
3004 1 3.0026147237952645e+00 5.1049291717878464e-01 1.0905228961108469e+00 0 1 1
3168 1 5.5622906768521316e+00 2.2646258960461840e+00 -7.4703473131466946e-01 0 1 0
197 2 1.4936449546622210e-02 3.3363224745050104e+00 7.9754324353979533e-01 0 0 0
891 2 -4.3503162960717923e-01 1.8831564417299482e+00 2.5744755959295600e+00 1 0 0
1861 1 1.3883249407333249e+00 1.5201734839859187e+00 2.6129274748996121e+00 0 0 0
2664 1 1.6516341233935714e+00 -7.8483752846528532e-01 4.5319921072792324e+00 0 0 0
636 2 2.0095646929418720e+00 -3.1185995526175225e-01 -9.5945419769455154e-01 0 1 0
3506 1 -2.1097891320612217e-01 2.5717781692539314e+00 3.1569479176526647e+00 1 0 0
4777 1 5.5901399441891297e-01 9.2685885755729136e-01 2.7802689019300186e-01 1 1 0
3427 1 3.8951779771019908e+00 2.6271115479556784e+00 4.0749384357436602e+00 0 1 1
3454 1 2.5066154866175960e+00 3.2066908486136949e+00 2.5090770679978189e+00 0 1 1
2983 1 2.4797976606871832e+00 2.6393268049100067e+00 1.0347573022965548e+00 0 1 1
4061 1 9.1819470348849492e+00 2.2350624835061592e+00 2.0215948918858455e+00 1 0 0
3439 1 4.1452969974527196e+00 3.8130433326600377e-01 -5.6640213209187695e-01 0 1 1
4359 1 4.5760109810398442e-01 4.1927391358284947e+00 -1.3238705469025058e-01 1 1 0
417 2 2.6592101144697220e+00 3.5043019022476702e+00 -5.7453473019396495e-01 0 0 1
4565 1 3.7899543591553830e-01 -1.0906425162629951e-01 3.0434725237787772e+00 0 1 1
1832 1 -3.6486958712926842e-02 9.1047087635694468e-01 4.5893349932889631e+00 0 0 0
2539 1 4.4708125621231263e+00 2.9206884416921981e+00 1.1645815733694880e+00 0 0 1
195 2 -7.4241952486212937e-01 9.5999995472708988e-01 -8.3626283970652526e-02 0 0 1
2669 1 2.9767271786978955e+00 1.3548971417067293e+00 3.9731916516724732e+00 0 1 0
3453 1 3.1331322473663272e+00 1.5377547144036807e+00 -4.1572410740967736e-02 0 1 1
10 2 3.2611643815940505e+00 3.7204821437037356e+00 2.2517188877470486e+00 0 0 0
4751 1 -3.9270357503895131e-01 -2.2666512314427512e-01 4.5334521522292071e-01 1 0 1
3330 1 7.5662865369444994e+00 2.3119159702946650e+00 -5.1995512168006996e-01 0 1 1
2686 1 1.1350915346508073e+00 2.9863786026423478e+00 1.5940732212698814e+00 0 1 0
3400 1 1.4725528355897710e+00 1.7736660501453367e+00 1.0432664728455197e+00 1 1 1
4 2 9.9779904334556346e-01 3.9292937378089370e+00 3.2028368233049145e+00 0 0 0
3878 1 1.5427022837234494e+00 -5.7678866904513348e-01 -4.5508807827351672e-02 1 0 1
1888 1 5.2047720155845294e+00 -4.0445410241044061e-01 6.2865474628837692e+00 0 0 0
3787 1 3.9783221575224115e+00 3.5847907417859410e+00 2.9455803156259264e+00 1 0 1
1059 2 6.7927558233456660e+00 2.8928823430030040e+00 -7.9289582319810836e-01 0 0 1
4491 1 1.4049823903783198e+00 1.4118504511383305e+00 6.3403329165702935e+00 1 1 0
4238 1 7.1778545492303403e+00 -2.8564016963292138e-01 2.5682829113140273e+00 0 0 1
4294 1 5.5895979301685630e+00 5.4866231777787222e-01 3.4486977411376314e+00 0 0 1
3005 1 6.8973441466123315e+00 1.6926559241378389e+00 1.7328122448799110e+00 0 1 1
3570 1 7.2686753464814640e+00 2.4188690204206713e+00 3.4623183973523775e+00 1 0 0
675 2 4.6238190774041552e+00 -6.5847428723529888e-02 2.9025156880073220e+00 0 1 0
4391 1 6.9638900404010320e+00 -4.2652698986809068e-01 4.3048058670651193e+00 0 1 0
3957 1 8.3228089868847590e+00 3.1366445933141751e+00 8.5930736482092875e+00 1 1 0
3965 1 -5.5460854038977381e-02 2.5721976630605163e+00 1.6040399946326223e-01 1 0 0
4890 1 5.4720164792606090e+00 2.4131592821909646e+00 3.0307747258025022e+00 0 1 0
3 2 4.3793111144800347e+00 2.1486318103428066e+00 2.8595411802855932e+00 0 0 0
872 2 7.3695512360598396e+00 2.7146226187998854e+00 1.1134233479000097e+00 0 0 0
3896 1 5.8927686668556785e+00 1.1169552071050683e+00 -3.7378483175831700e-03 1 0 1
1 2 5.1561911919923116e+00 3.6085966387441513e+00 1.0101473360992450e+00 0 0 0
2653 1 1.2250388937032888e+00 -3.0294784132417629e-01 1.5258527898235026e+00 0 1 0
638 2 5.5033758721218726e+00 1.4762158878663172e+00 8.3313149889662208e-01 0 1 0
5 2 6.5348045277087259e+00 3.0106305498043024e+00 3.1598512972794568e+00 0 0 0
653 2 6.6305394350830973e+00 1.0737062892130964e+00 3.0410301703368816e+00 0 1 0
646 2 7.7386527608862163e+00 3.9411281658040576e-01 9.7056432355905198e-01 0 1 0
3420 1 8.3006995370778434e+00 6.4967327969406896e-01 1.6625181349498557e+00 -1 1 1
2147 1 3.9902712358259960e+00 6.3804565370925492e-01 2.7012198878044651e+00 0 0 1
21 2 8.8491458100488618e+00 2.2422381533734428e+00 3.1419236392838936e+00 0 0 0
3840 1 8.1385722422078146e+00 1.3739541513876601e+00 4.6644869383393361e+00 0 0 1
1819 1 7.3158077676818536e+00 3.7278560866909087e+00 5.1905443906139634e+00 0 0 0
4803 1 5.9344248091942449e+00 2.3461448257914630e-02 1.2569741410147079e+00 1 1 0
4432 1 -4.1623078820614184e-01 2.8489551539299947e+00 5.8106695660523000e+00 1 1 0
2187 1 3.9445888068269781e+00 3.2905128692029706e+00 7.5045178264966950e+00 0 0 0
870 2 8.6482431405028262e+00 1.9973343193899917e-01 4.1427452576194579e+00 0 0 0
3507 1 6.6605323867413828e+00 3.9983780603293964e+00 2.3173819735883372e-01 0 0 0
3170 1 8.1901501146154505e+00 3.4947379604416433e+00 1.7292050411383957e+00 0 1 0
2693 1 3.5018012259290767e+00 -5.1042340382805795e-01 3.5271744622221410e+00 0 1 0
4089 1 6.3743121817762152e+00 2.8121133588810889e+00 1.3653179608841737e+00 0 0 0
2429 1 3.5717900806032983e+00 1.9259574924047129e+00 2.1591868076943719e+00 0 1 0
3920 1 9.1455529825476702e+00 2.2768477557917297e+00 5.9031558085502009e+00 0 1 0
3839 1 8.0278112805473469e+00 -5.9392306791202509e-01 8.5602587713801115e-01 0 0 1
2496 1 4.5660591864803086e+00 1.2459414861700298e+00 1.0258977150261082e+00 0 0 1
3492 1 8.6357513711941554e+00 3.2380333791034239e+00 4.0353681339612786e+00 1 0 0
4396 1 7.3772839145350555e-01 7.4118418745232528e-01 8.2464167036486433e+00 1 1 0
5097 1 2.0074201334018684e+00 3.9150907962579380e+00 4.7699172647507360e-01 0 0 1
2197 1 7.7189038024649577e+00 9.0657452420260487e-01 8.7047317717817263e-02 0 0 0
2996 1 8.1964867871191061e+00 6.3516307461242638e-01 3.4745202414034635e+00 0 1 1
652 2 6.2228767088401593e+00 -7.8160960219972697e-01 4.1225886920615480e+00 0 1 0
2284 1 1.0867504011478379e+00 3.0267179388561738e+00 7.1089892921242299e+00 1 0 0
4010 1 1.4527573784797227e+00 -3.6368971427351626e-01 6.1434215617216363e+00 1 0 0
25 2 2.4160927371590386e+00 7.0420447854372670e-01 4.1598312036458163e+00 0 0 0
4501 1 4.9373134650377670e+00 3.4282808701818368e+00 8.7422714373243551e+00 0 0 0
2171 1 3.0909344777366932e+00 -5.8724376268916900e-01 7.5247061490168541e+00 1 0 1
2535 1 3.0010038184582166e+00 1.4224410571587818e+00 6.3980039760958016e+00 0 0 1
2636 1 1.4960715132437263e+00 1.5545754987738043e+00 4.3685430970473700e+00 0 0 0
3095 1 4.0724698263160146e+00 5.2108044496628247e-01 5.2679184508414121e+00 0 1 0
2240 1 7.3857994805900393e+00 -8.0720969103630891e-01 8.5225325321420584e+00 -1 1 0
3195 1 6.6431884843834359e+00 -3.0486646348614055e-01 6.4317070025407412e+00 0 1 0
2070 1 1.0418930233884425e+00 3.0196869567561389e+00 5.0534884375985456e+00 0 0 1
2340 1 1.8532662120778469e+00 -3.7455084496719998e-01 8.0070318648514167e+00 0 0 0
4421 1 4.0280450380664901e+00 2.8398503735044947e+00 6.0436521585313221e+00 0 0 0
4651 1 -1.2440627788785474e-01 2.2852681595802009e+00 1.5186188911093534e+00 1 0 1
3368 1 2.4511745996036334e+00 3.7040371304518400e+00 4.6788479020747715e+00 0 1 1
883 2 -4.3618659652718422e-01 -1.2189138962599766e-02 7.5987628367990148e+00 1 0 0
1547 2 -3.7270457691573700e-01 1.2745874522354927e-01 4.1981412252243775e+00 1 1 0
14 2 8.7805991147765479e+00 1.7172577491607761e+00 -6.9101748089257209e-01 0 0 0
3087 1 2.0104016992224856e+00 4.6602738004367561e-01 5.1275465464721570e+00 -1 1 0
2571 1 4.6937856753709939e+00 -5.6324974181384202e-01 7.5384606304109858e-01 0 0 1
3039 1 2.5947378335200102e+00 3.1558961872215763e+00 7.5331706216310828e+00 0 1 1
4845 1 7.1726505158667053e-01 2.4223463827895384e+00 8.9365612433602877e+00 1 0 0
6 2 3.2869931939734069e+00 3.5207797908241965e+00 4.5682734817611985e+00 0 0 0
36 2 5.6936688176827932e-01 2.2227894653475024e+00 4.6172215466849664e+00 0 0 0
659 2 1.0147644519367656e+00 4.9360640135964418e-01 5.8885744119389303e+00 0 1 0
37 2 2.0850965741892336e+00 2.6595085501883586e+00 6.8899891821963930e+00 0 0 0
665 2 2.5615316279221028e+00 1.7471689298741500e-01 7.6211683488502366e+00 0 1 0
31 2 -1.7780910022230156e-01 3.6439611837746479e+00 7.2053874926030446e+00 0 0 0
48 2 9.6986993884309802e-01 1.8327312098890554e+00 8.1713194121944426e+00 0 0 0
257 2 2.2334786525047927e+00 3.5618161977280884e+00 8.8895115649116949e+00 0 0 0
38 2 3.8331984121634672e+00 1.6544645092069636e+00 5.8963878847559714e+00 0 0 0
28 2 3.7645330916820381e+00 2.1382116040577217e+00 8.3772231531809336e+00 0 0 0
4418 1 5.2874698032497225e-02 1.6353425808003914e+00 7.4941507303882506e+00 1 1 0
4315 1 -7.1415300651288915e-01 2.0143048342433687e+00 4.7580505118407617e+00 1 0 1
1897 1 2.3322777254027387e+00 2.9114775140187104e+00 5.8435584683519881e+00 0 0 0
46 2 4.3089951749312538e+00 3.7332323729458263e+00 6.7305251282079590e+00 0 0 0
3640 1 2.9863173827125618e+00 1.5086499283303443e+00 8.1637061623432299e+00 0 0 0
631 2 4.5754625839740006e+00 -5.8463079645689875e-01 5.4783864519593219e+00 0 1 0
3983 1 7.1330228684536721e+00 9.1481886367274567e-01 6.3653474642995107e+00 0 1 0
3212 1 6.0721222738360474e+00 2.6400557259901558e+00 6.0658382793987400e+00 0 1 0
2276 1 8.8299935708131159e+00 1.1535452089918357e+00 7.1114096856502869e+00 0 0 0
3991 1 6.0919683619927536e+00 5.7702034461092921e-01 4.6149382891886814e+00 0 0 0
3955 1 6.0671348283327733e+00 3.3572971568944521e-01 7.5772229568468852e+00 0 0 0
4048 1 6.0777318389902710e+00 1.3917502631964056e+00 3.7821442155640117e+00 1 0 0
4430 1 4.6229716255065787e+00 1.8622673138258747e+00 7.9698295351445942e+00 0 -1 0
2758 1 7.7121149757500724e+00 3.9867806133961041e+00 7.3338811618491579e+00 0 0 0
4004 1 5.7199553128782874e+00 -3.5100272112304254e-01 8.4996826404500716e+00 1 1 0
4024 1 8.8580515782074052e+00 -5.2586562180723129e-01 7.7998376102007256e+00 0 0 0
44 2 7.2679844514567993e+00 3.9866962616422343e+00 6.4900815386729684e+00 0 0 0
16 2 7.9578088671302005e+00 4.2179842080610479e+00 4.3071483273675426e+00 0 0 0
2232 1 8.7696495316111509e+00 3.8579384344428789e+00 6.9377989240922764e+00 0 0 0
678 2 5.5397812606348831e+00 1.4253110175381938e+00 4.8580249689936563e+00 0 1 0
1738 1 5.9397615925698926e+00 3.8854037611447225e+00 3.9054090945876911e+00 0 0 0
314 2 7.6818332583324604e+00 3.6170694863253505e+00 8.9534338542848566e+00 0 0 0
63 2 7.4787603858756633e+00 7.1242480985149559e-01 8.9979229461068400e+00 0 0 0
2737 1 8.1709317747255401e+00 7.3725768859405250e-01 6.0445563336216299e+00 0 1 0
3557 1 6.2324787038056044e+00 3.4054343929089246e+00 7.9507067761951848e+00 1 0 0
47 2 5.5231748947992765e+00 3.8279782360791907e+00 4.9095152562487954e+00 0 0 0
1526 2 8.7064078049229678e+00 -5.5524361132268585e-01 5.9220929373376645e+00 0 1 0
2149 1 1.4893812142977363e+00 3.0812685328045730e+00 3.3350855158096753e+00 0 0 1
18 2 5.5910191043025081e+00 4.1196663086793146e+00 8.3406820988463917e+00 0 0 0
4826 1 5.3300524044336246e+00 1.3390624666166393e+00 5.9116493903652687e+00 0 1 0
4410 1 4.4634617030681341e+00 -4.3648939749247673e-01 7.7215048139664013e+00 0 0 0
42 2 5.0748236485185467e+00 3.5381467987287740e-01 7.5487328716427342e+00 0 0 0
3999 1 6.2501766572705959e+00 1.8482911483899263e+00 7.7819563423454348e+00 0 0 0
3532 1 5.3282640578325848e+00 2.9710244673814605e+00 4.7534645026126512e+00 0 0 0
4255 1 7.9708573991395646e+00 2.3267740438266662e+00 5.7857601352756989e+00 0 0 1
677 2 7.5107778346072358e+00 1.5549228193253501e+00 5.4253700486444956e+00 0 1 0
34 2 6.0656626739912864e+00 2.4550969007196008e+00 6.9588434049331154e+00 0 0 0
39 2 7.1294591436043078e+00 2.2814768374923777e-01 7.0600929562827091e+00 0 0 0
41 2 8.4872603084122904e+00 2.2264898772919026e+00 7.1641436292188967e+00 0 0 0
4403 1 4.8355297425769672e+00 6.6926782320722555e-01 9.0152596897535968e+00 1 1 0
4271 1 8.4232224389465795e+00 4.0132241797312851e+00 7.3169726741078756e-01 0 0 1
27 2 8.9389092730770336e+00 4.1841651762897412e+00 1.9758384831626219e+00 0 0 0
881 2 1.2300557550358469e+00 4.1838199648176655e+00 5.3800223169961763e+00 1 0 0
4388 1 -7.1573117497474070e-01 4.2213934218847502e+00 6.6732658168610488e+00 0 0 0
3993 1 4.5517446380350641e+00 3.7684091032499776e+00 1.2519518729248880e-01 1 0 0
3119 1 1.4597615746485237e-01 3.7567311599279396e+00 8.2732090404738301e+00 0 0 0
4798 1 -4.8646351411754035e-01 -4.8725831936886393e-01 5.2960728287442400e+00 0 2 0
2159 1 3.8613961794901694e+00 -3.8406966651835611e-01 6.1848575219815780e+00 0 0 1
4874 1 6.1072617214220637e+00 -9.2828108706057622e-02 -8.2378521816777983e-01 0 1 0
4382 1 1.0415821647263195e+00 -7.4368178921187522e-02 -9.5229486323997037e-01 0 0 0
53 2 3.1044564351984172e+00 -2.0734878392170808e-02 1.1271381802541701e+01 0 0 0
55 2 1.1801923697502874e+00 1.6999232480035831e-01 1.3111082473238842e+01 0 0 0
57 2 6.8426819662405003e-01 1.8932075808437379e+00 1.1758465684042479e+01 0 0 0
61 2 2.4564290019952773e+00 2.1808765551267060e+00 1.2783452110356013e+01 0 0 0
4909 1 3.3881357057627586e+00 -6.9754758460634281e-01 9.6195933710875163e+00 1 1 0
59 2 2.0834099779360140e+00 4.1098747797793056e+00 1.1172557770295674e+01 0 0 0
51 2 4.4010745046344208e+00 1.7697629457566422e-01 9.7476165210721319e+00 0 0 0
3251 1 6.5397831471980972e-01 6.8648500678391544e-01 1.3838813247142879e+01 0 1 0
62 2 1.2798426272704173e+00 4.1154517539328275e+00 1.3064467480091025e+01 0 0 0
1840 1 2.6487108038533869e+00 3.1113063053081493e+00 1.1457332971742163e+01 0 0 0
3163 1 5.7119838988618721e-01 2.7988335373575803e+00 1.1575991997317239e+01 0 0 0
2244 1 1.9552699809746685e+00 2.9087218260597276e+00 9.4845428715167284e+00 0 0 0
1825 1 1.4573744001260787e+00 1.7525712025780913e+00 1.1031759206759162e+01 0 0 0
50 2 7.4963141507346776e-01 3.1791594916085941e-01 9.5597357452218485e+00 0 0 0
60 2 1.2006673885038721e-01 3.2740940712155684e+00 9.9124836689606610e+00 0 0 0
940 2 -3.9225470209415264e-01 3.8870843553197316e+00 1.1698140004402639e+01 1 0 0
3088 1 8.4270897711787409e+00 9.0362821226858614e-01 1.6393919079143263e+01 0 1 0
2582 1 3.2780027461943497e+00 1.7815654475205487e+00 1.1610422334545412e+01 0 0 1
56 2 2.3384791411511774e+00 1.8099045823163111e+00 1.0220284384741625e+01 0 0 0
4295 1 3.9888719395672458e+00 -5.2101021938044889e-01 1.1272799167711792e+01 0 0 1
58 2 4.2128563343197083e+00 2.1406216452785820e+00 1.1210898636135914e+01 0 0 0
4834 1 5.1876948247844252e+00 8.9353383295254041e-01 1.0380962427332014e+01 0 1 0
54 2 4.5466604370092512e+00 2.7036369805205362e-01 1.2887530051986744e+01 0 0 0
2839 1 4.3366214012325655e-02 2.3366049927591117e+00 1.2829385651735670e+01 0 0 0
4952 1 8.4958316803529943e+00 9.5510016221161642e-01 9.4527553497443204e+00 0 1 0
1777 1 3.2955482187217555e+00 3.6857373531219402e+00 9.3041467686108419e+00 0 0 0
936 2 -7.2521811930534696e-01 2.1371482058718194e+00 1.3339383963804428e+01 1 0 0
3974 1 2.0921093072635513e+00 1.1233200860185282e+00 9.4607598664672050e+00 0 0 0
3664 1 4.7837227519824079e+00 -6.6723908673832766e-01 1.5400633047609990e+01 1 0 0
52 2 -5.9910368304732275e-01 3.5276678635046332e-01 1.1746669717181447e+01 0 0 0
1775 1 5.1531102545197083e+00 2.3400730211591640e+00 1.0103960307529343e+01 0 0 0
240 2 4.1425092811645792e+00 3.9884980453655015e+00 1.0098024542864790e+01 0 0 0
2043 1 5.6488938190711413e-01 8.3352858318692835e-01 1.2105280426414934e+01 0 0 0
2351 1 8.4667440771809677e+00 3.4660244692398194e+00 1.7015864325625770e+01 -1 0 0
96 2 4.3756189543890756e+00 2.2208555058877839e+00 1.3878413972272584e+01 0 0 0
4019 1 1.0194490479466523e-02 2.1903443313426956e+00 1.0451038132992775e+01 1 0 0
313 2 3.8125128740505847e+00 3.9586522426099080e+00 1.2665110051166002e+01 0 0 0
2263 1 1.1633738050548736e+00 4.1182109200706440e+00 1.0659128873291596e+01 1 0 0
3662 1 1.2595273559297171e+00 3.6436788334079750e+00 1.4918645463485806e+01 0 0 0
3628 1 4.3657353367014462e+00 5.8940752835951282e-01 1.1956089073160026e+01 0 0 0
4183 1 7.7719289813526462e+00 2.8604867311474917e+00 1.3254375579391832e+01 0 0 0
4877 1 3.9191336529501237e+00 3.0411197302973720e+00 1.0411735487103698e+01 0 1 0
2272 1 2.8445818420852569e+00 8.8009868318447149e-01 1.0771740666863186e+01 0 0 0
2757 1 3.8223315023706084e-01 2.0792958022273069e+00 1.4123442585632557e+01 0 0 0
68 2 9.1615044944481099e+00 7.7589033888778913e-01 1.7716685886959215e+01 0 0 0
4110 1 3.7575927358412500e+00 3.8244678273461119e-01 1.7354739768713866e+01 1 0 0
66 2 9.1358928747148944e+00 2.2230082494276999e+00 1.6167620412320410e+01 0 0 0
2281 1 6.7378119943231045e+00 3.7054678389525586e+00 1.1895911434167918e+01 0 0 0
4080 1 8.0316235137267835e+00 4.4826336061527328e-01 1.0789858783536385e+01 0 0 0
98 2 6.0313615761292381e+00 2.1091001663079902e+00 9.3845416903234469e+00 0 0 0
2875 1 2.7086598641165955e+00 3.0838889362261654e+00 1.2950230838132601e+01 -1 0 0
4390 1 1.8193334407017101e+00 1.7289124237828624e-01 9.9071121416444683e+00 1 1 0
3205 1 7.4452645407608120e+00 -7.9665318675681640e-01 1.2442289018122036e+01 -1 1 0
2683 1 -6.8347452401903086e-01 3.2615552953086642e+00 1.2307968429997118e+01 0 0 0
2329 1 8.4670334535474208e+00 1.9695398710858614e+00 1.1297483533627037e+01 0 0 0
71 2 7.6010386624855695e+00 3.6690584096355900e+00 1.2679991523013223e+01 0 0 0
64 2 6.4253838235637710e+00 5.2226028262383162e-01 1.1132828957184550e+01 0 0 0
65 2 7.7889979994271084e+00 5.0121483652912713e-01 1.2938986375093320e+01 0 0 0
70 2 7.6745886754759614e+00 2.3103645978297740e+00 1.0884007090085420e+01 0 0 0
73 2 6.1937011903788086e+00 2.0712440674740726e+00 1.2779507767949003e+01 0 0 0
3588 1 3.1661676305830637e+00 -4.9205617097600052e-01 1.3401937551660248e+01 0 0 0
5026 1 6.9765225009390264e+00 -6.2255839993847495e-01 1.9147147280902448e+01 0 1 0
2567 1 1.9806995483475207e+00 3.9734950217497698e+00 1.8943877113117736e+01 -1 0 0
286 2 5.9967489349041205e+00 4.0491673618262736e+00 1.4159240806389112e+01 0 0 0
2614 1 5.1477356475674316e+00 4.1147289745162574e+00 1.4008437730083893e+01 0 1 0
92 2 4.4059574722001766e+00 3.9561613090515193e+00 1.5753317881576962e+01 0 0 0
69 2 6.0414101759844065e+00 3.7835035560848347e+00 1.0897151925320371e+01 0 0 0
4837 1 8.2507672488405461e+00 1.9771867493303832e+00 9.7461514842833168e+00 0 1 0
3603 1 6.6564047886700308e+00 1.4253816442611003e+00 1.1954292960878023e+01 0 0 0
4474 1 8.3323272120422374e+00 3.1750063219153337e+00 1.4206176386465129e+01 1 1 0
2800 1 5.5099567835188772e+00 3.2516898916979131e-01 1.2565109739199023e+01 0 0 0
2767 1 7.6790886851311058e+00 1.5818424787052772e+00 1.2443635613658632e+01 0 1 0
3243 1 8.8798415464690663e+00 3.8144476530208093e-01 1.3477964098223975e+01 0 1 0
2270 1 3.6937526076839582e+00 5.5064367759686772e-01 1.3090930265172929e+01 0 0 0
3183 1 6.7191153136131829e+00 1.0780468274735118e+00 9.3731605910823159e+00 0 1 0
1864 1 6.0818418095900215e+00 1.1770278790154731e+00 1.3983337227121773e+01 0 0 0
2415 1 6.8961635487420896e+00 1.8092428785204770e+00 1.0201791555643727e+01 0 0 0
2969 1 2.2088306335591725e+00 2.4716765310135789e+00 1.8644042930825602e+01 0 0 0
2366 1 7.7004070164798311e+00 1.1355578438999645e+00 1.3827483340987053e+01 0 0 0
3085 1 8.8007971444626456e+00 3.0690237801716327e+00 1.0648874404734373e+01 0 1 0
3078 1 6.4995190789869417e+00 3.8690059721385337e+00 1.5152790444443294e+01 0 1 0
67 2 5.9858791182905593e+00 3.9639739389386381e+00 1.7581351348785478e+01 0 0 0
3131 1 5.9620501265370347e+00 2.9713592636622437e+00 1.1881139755579230e+01 0 0 0
4157 1 4.3208244263955278e+00 3.0642371897056644e+00 1.3155613454391231e+01 1 0 0
1809 1 5.4001450742788109e+00 5.4096259356561816e-01 1.6828798617241773e+01 0 0 0
5079 1 5.3186890089204431e+00 3.5583793355662099e+00 1.8594057229474046e+01 1 1 0
4062 1 6.7994350304207041e+00 3.3111643382456108e+00 9.4800186990963589e+00 0 0 0
2877 1 1.7462487142471717e-01 2.9169421996684819e+00 1.5854368434509457e+01 0 0 0
2909 1 2.0714748460967907e+00 4.6886998654798573e-01 1.9059484850976673e+01 0 0 0
109 2 9.8290661159833803e-01 3.8727389304711881e+00 1.9210692044427464e+01 0 0 0
3627 1 3.4099284711648670e-01 4.1422343017678802e+00 1.8608688787577091e+01 1 0 0
930 2 -7.4764623402497088e-01 2.2398704539329581e+00 1.5970733747946912e+01 1 0 0
943 2 -5.2151773394254752e-01 4.7777228164355767e-01 1.4464819745766075e+01 1 0 0
4459 1 1.0252740381743386e+00 1.7695390177624102e+00 1.6829719644184127e+01 0 0 0
2446 1 6.2882464806490690e-01 8.8681537708590530e-01 1.8569141183658168e+01 0 0 0
2382 1 3.2569846814072978e+00 -1.3463612256843305e-01 1.4895139725727915e+01 0 1 0
82 2 -6.6133709018974585e-01 4.0699459576232950e+00 1.4724551252891484e+01 0 0 0
3970 1 1.8239077048358490e+00 1.8631788847780459e+00 1.3481851328125114e+01 0 0 0
4025 1 6.5163286614367850e+00 -4.5930638317923667e-01 1.6437898736499907e+01 0 0 0
84 2 -7.4665863184443404e-01 3.7698310351954021e+00 1.7612847102152745e+01 0 0 0
1881 1 4.4149150383753266e+00 1.3092860870982879e+00 1.4429134810808009e+01 0 0 0
1986 1 2.3937409181940685e+00 9.9390164741802733e-02 1.7109085366637142e+01 0 0 0
916 2 8.9575609729845365e+00 4.7564452539673896e-01 1.0597175950532938e+01 0 0 0
1781 1 3.6032322538487591e+00 1.1739801478328225e+00 1.6094069864644421e+01 0 0 0
4076 1 -7.7787135691370191e-02 3.0186198374801196e+00 1.7768160897122463e+01 0 0 0
4938 1 8.8013445836341866e+00 2.1242894568160415e+00 1.5170375672059780e+01 0 1 0
3223 1 1.9820225796048230e+00 4.5628551195854050e-01 1.3563683269390825e+01 0 1 0
74 2 2.9044995989289806e+00 5.1171592237587893e-01 1.4395165252024331e+01 0 0 0
75 2 1.0321528147387480e+00 7.8768098741324266e-01 1.6070368695877988e+01 0 0 0
77 2 2.9353401728608524e+00 1.2423682785822143e-01 1.7894660058606707e+01 0 0 0
79 2 2.7626794229406317e+00 1.9532076924999746e+00 1.6070998316488065e+01 0 0 0
81 2 1.2670435476471602e+00 2.4542130406386069e+00 1.4483273694934317e+01 0 0 0
86 2 9.7691442749427559e-01 2.4307944695656083e+00 1.7620643140385038e+01 0 0 0
3697 1 1.8665695847665735e+00 2.0551368078594878e+00 1.5589807075683954e+01 1 0 0
80 2 1.2954437315175782e+00 3.9083778993660108e+00 1.6152009393995204e+01 0 0 0
2239 1 4.2372366539824915e+00 3.0189742780669433e+00 1.4415887259817714e+01 0 0 0
4614 1 3.1659787231418024e+00 2.7741081664053349e+00 1.6290129364235348e+01 1 1 0
2488 1 4.8903633160642568e-01 5.9480381953944561e-01 1.0438689810068686e+01 0 0 0
2435 1 1.0114741869060930e+00 2.1301644289248522e-01 1.6796245148107630e+01 1 0 0
1940 1 3.8435707186229662e+00 5.4830925986968193e-01 1.8540550016232302e+01 0 0 0
112 2 7.4927062559255901e+00 4.9094444689434935e-01 1.9224165250687200e+01 0 0 0
1996 1 6.9513550632519232e+00 3.5199726146462829e-02 1.5303919194960610e+01 0 0 0
4147 1 1.3348737652713414e+00 3.3441022591831917e+00 1.7486887390755623e+01 1 0 0
4195 1 8.5917736886096119e+00 1.1382415327800741e+00 1.8956433908644506e+01 0 0 0
94 2 7.4703576984280211e+00 3.6231515997915498e+00 1.5990330857482281e+01 0 0 0
85 2 2.8248519632293561e+00 3.6039799115063218e+00 1.7823448149610201e+01 0 0 0
89 2 6.2670384468463602e+00 2.0421969646911009e-01 1.4449594448343195e+01 0 0 0
2733 1 7.0580361292342468e+00 2.3646264204982206e+00 1.5450490945540245e+01 0 1 0
2704 1 5.4378227281498086e+00 6.4765711364021539e-01 1.5288218040743011e+01 0 1 0
5052 1 5.1036215493754780e+00 -3.3078345264010123e-01 1.8523123204644708e+01 1 1 0
2008 1 7.2921380022235720e+00 1.1627021621523521e+00 1.8532828647370081e+01 0 0 0
100 2 4.6088456173759571e+00 1.5164624425861239e-01 1.9151538830058985e+01 0 0 0
4945 1 7.5475929814076022e+00 3.3416722640651670e+00 1.7915695913455874e+01 0 1 0
95 2 7.7840065422656739e+00 2.1333268161172421e+00 1.4564867548381317e+01 0 0 0
3157 1 7.9009081590405419e+00 2.8290017218454944e+00 1.5888564167544285e+01 0 1 0
90 2 7.4388272934178534e+00 2.4190241033338964e+00 1.7764166805274677e+01 0 0 0
3668 1 1.9684861172706194e+00 6.5766976149455081e-01 1.5536938184820492e+01 1 0 0
2310 1 8.2932131026871758e+00 -4.6531025115764646e-01 1.5374988505467115e+01 0 1 0
2793 1 6.7060172477488544e+00 1.2365404391203962e+00 1.6288898601217550e+01 0 0 0
88 2 7.7872652040248465e+00 2.7660415688127293e-01 1.5995246197892861e+01 0 0 0
1752 1 5.3631677336052155e+00 2.5226167424931072e+00 1.5162329737152209e+01 0 0 0
2433 1 5.3898069826798594e+00 1.9411645339898702e+00 1.6863139187489992e+01 0 0 0
1954 1 7.9188627771858027e+00 -7.2955131788766192e-01 1.3868113353049656e+01 0 0 0
93 2 5.9977278265221470e+00 1.9629512198510546e+00 1.5842274937178818e+01 0 0 0
1914 1 -4.4083645637693442e-01 -1.1554844164342937e-01 1.5645336931018790e+01 0 0 0
3179 1 8.8864593985862772e+00 -1.9895096110526223e-01 1.8199508471829979e+01 0 1 0
4488 1 6.3353285104890125e+00 6.2108574059763488e-01 1.8363023785749323e+01 0 1 0
91 2 6.1287672617985383e+00 4.2040336453897131e-01 1.7489787094962995e+01 0 0 0
2713 1 8.1401248507272594e+00 1.9800203429357288e+00 1.8108644180374817e+01 0 0 0
83 2 4.5263803426453473e+00 1.8058137337280540e+00 1.7490971664341792e+01 0 0 0
87 2 4.6421767644865595e+00 3.8065600841917990e-01 1.5946892948304107e+01 0 0 0
2502 1 4.4685279500145105e+00 2.8124104718208423e+00 1.7848285488303958e+01 0 1 0
5046 1 8.0191039402267417e-01 -2.8136630900090620e-01 1.1586175205720405e+01 1 1 0
4088 1 5.1650072018441566e+00 4.0837683535636122e+00 1.6793197086090121e+01 1 0 0
4095 1 1.6801171876329191e-01 4.0392318985911340e+00 1.6381886791285503e+01 1 0 0
2225 1 2.3940638275940453e+00 -5.8481645422871631e-01 1.2404092663555311e+01 0 0 0
1830 1 5.7889468204758519e+00 -6.1699683551186513e-01 1.1516619348364388e+01 0 0 0
1936 1 4.2187992576008480e+00 2.7503073400336855e+00 1.1788784308562020e+01 0 0 0
2313 1 2.4972433506657388e+00 3.8680902210745369e+00 1.4652816441700992e+01 0 0 0
4633 1 1.9122359721234825e+00 4.0471955739977368e+00 1.2119749905634453e+01 1 0 0
1869 1 2.3062641885027380e-01 -7.9341662659670187e-01 1.3870934609385307e+01 0 1 0
3073 1 6.8112423632635579e+00 -7.4570162501700921e-01 1.0205362899916089e+01 0 1 0
4590 1 5.0877967278012477e+00 1.7333000648884931e+00 1.9150810011972158e+01 0 0 0
102 2 2.7987216546604521e+00 3.1344196522694956e-01 2.0902830867021194e+01 0 0 0
104 2 1.2204644403069613e+00 5.0433041529702516e-02 2.2947364092076157e+01 0 0 0
106 2 8.0605277619098215e-01 1.9557411032869574e+00 2.0989941306008046e+01 0 0 0
110 2 2.6889121121909794e+00 1.8679505960586940e+00 2.2588329027474440e+01 0 0 0
4566 1 6.0440336326946875e+00 9.4395164402250531e-01 2.0055335153210290e+01 0 1 0
1875 1 2.2015238019602728e+00 2.8250844635742212e-01 2.1874704239086043e+01 0 0 0
4961 1 7.2987305511496969e-01 1.1966059525851294e+00 2.0042110718812346e+01 1 1 0
107 2 4.2258263783486125e+00 1.9291138117886866e+00 2.1213657682929259e+01 0 0 0
111 2 1.3802930274516925e+00 3.8103478198322538e+00 2.2468263213240704e+01 0 0 0
4113 1 3.3305757046236319e+00 6.0754651206200627e-01 2.3741531894486869e+01 1 0 0
372 2 4.0310821271748631e+00 3.7752408987743120e+00 2.2160177582007421e+01 0 0 0
3860 1 6.1899261099461178e-01 3.4039100970850775e+00 2.2032689757004789e+01 0 0 0
4664 1 6.7917922480581154e+00 -5.4796156402689555e-01 2.8078838699083843e+01 1 1 0
2103 1 4.5022306106286356e+00 -5.2040235941405866e-01 2.8127506763181316e+01 0 0 0
5013 1 6.1074139597170518e+00 -2.5240494228896992e-01 2.3610417122391755e+01 1 1 0
3676 1 1.8802424520075123e+00 2.8907947793753950e+00 2.0682041469421602e+01 0 0 0
4993 1 8.8431010189676051e+00 -2.2888758806752652e-01 2.5848137114467693e+01 0 1 0
4531 1 3.5340184608088734e+00 1.2394983397171759e+00 2.1274294731923487e+01 1 0 0
4441 1 2.4012620131386782e+00 -5.8813501863293127e-01 2.0149262452631760e+01 0 0 0
5131 1 3.5368284363441287e+00 2.0593839671067311e+00 2.2595025569748763e+01 1 1 0
320 2 2.9887028265888524e+00 4.1194640652433074e+00 2.4363380709325135e+01 0 0 0
3897 1 1.2216601736645893e+00 3.1369860210937346e+00 2.3985265727782540e+01 1 0 0
3684 1 3.8280034911925309e+00 -3.6834781006444989e-01 2.1900335031836370e+01 1 0 0
99 2 1.0477756281104007e+00 4.2291177697427851e-01 1.9311464542112851e+01 0 0 0
2048 1 2.8837431236801936e-01 2.9833789733922322e-01 2.0983222766529337e+01 0 0 0
3621 1 -1.6483644260000818e-01 -4.7894860382455956e-01 2.1937476978609581e+01 1 0 0
4278 1 3.5766851239665485e+00 3.0174447905086526e+00 2.5583974955207022e+01 1 0 0
3130 1 4.6767789104829802e+00 1.4033470748500010e+00 2.0408413978664537e+01 0 1 0
1997 1 2.2592543644214489e+00 2.6149822962205898e+00 2.2058514236088058e+01 0 0 0
125 2 9.2029273729368626e+00 3.6875130043360542e+00 2.0978468397921805e+01 0 0 0
2475 1 6.3858605375990263e-01 7.2975260494180083e-01 2.3182815360878553e+01 0 0 0
989 2 -5.2038225554208484e-01 3.9318179356784739e+00 2.1200618738826268e+01 1 0 0
2470 1 8.1433604384784548e+00 3.9081942710297879e+00 2.7348616732213753e+01 -1 0 0
3822 1 6.3273132414942195e+00 4.0526620155891697e+00 2.7810951012249038e+01 0 0 0
3028 1 1.1565088169030413e+00 -3.2848756213767294e-01 2.9007630171542328e+01 0 0 0
4950 1 7.9444618463089434e-01 -4.5181513052191191e-01 2.4464122067501325e+01 0 0 0
105 2 2.7736724353310329e+00 1.7009255617824932e+00 1.9276303990985213e+01 0 0 0
108 2 2.4970955282992908e+00 3.5719955535887262e+00 2.0635560998062608e+01 0 0 0