LAMMPS data file via write_data, version 5 Jun 2019, timestep = 100000

5184 atoms
2 atom types

0.0000000000000000e+00 2.0919400000000000e+01 xlo xhi
0.0000000000000000e+00 2.0919400000000000e+01 ylo yhi
-1.9586135619030181e+00 4.0441970822279231e+01 zlo zhi

Masses

1 1.008
2 15.9994

Atoms # atomic

1501 2 1.4877907933402874e+00 4.8387077963582703e+00 -2.8062014641696775e-02 0 1 0
12 2 3.1983162988717719e+00 2.9272429680658023e+00 3.3418643622127320e-01 0 0 0
4455 1 1.2667521921645816e-01 2.1766049237730090e+00 1.0319245389645650e+00 0 1 0
28 2 1.3371292748855772e+00 5.4771496360049277e-01 2.6672813230645298e-01 0 0 0
1354 2 2.5320643638976343e+00 1.1590758470957527e+00 2.2923801460383393e+00 1 1 0
190 2 1.2537994209205257e+00 2.8136391132712313e+00 1.6061415434049247e+00 0 0 1
1674 2 6.2158498902014845e+00 5.4373283372208436e-01 8.8242890383452988e-01 0 1 1
2419 1 2.7123396630247112e+00 9.2841563317522162e+00 2.9271258637319590e+00 -1 0 0
4266 1 4.8657898957726315e+00 4.7817794396227589e+00 6.9263043510480582e-01 0 1 0
4545 1 6.7287286946436913e+00 2.1505862051279072e+00 -1.5860540096221434e+00 1 -1 0
4583 1 7.7167858566041296e+00 1.4669072004876411e+00 6.7398330857564304e-01 -1 1 0
3925 1 8.5196192078303827e+00 1.1354079922268638e+00 -8.6100996587318201e-01 0 1 -1
210 2 4.6259244438345188e+00 6.6292561571829873e+00 -1.7661628215860483e+00 0 0 0
3271 1 4.6141790452017029e+00 1.6387247685228028e+00 -6.0800933865119977e-01 -1 1 1
17 2 9.1197089110472547e+00 9.2225294545118484e+00 1.9850011594441677e+00 0 0 0
3857 1 3.1612666838420695e+00 4.2504882410141631e+00 2.0153509660891986e+00 0 -1 0
2153 1 1.3402516654203120e+00 1.0440862022839950e+01 3.2995897798772784e+00 -1 1 1
4194 1 1.5751011486275031e+00 6.6592788103498384e+00 -3.8215821942224482e-01 1 0 1
4 2 3.8953443235768330e+00 8.6712773710427848e-01 9.8804042084220001e-02 0 0 0
2625 1 2.5708788450480968e+00 4.6089689006421147e-01 3.1927732831066145e+00 2 1 0
3845 1 3.0394971768545829e+00 8.2852352615013505e+00 -1.0140624884876490e+00 4 2 1
4919 1 3.1188629036929587e+00 6.9445224311722455e+00 -4.4907090557042628e-01 2 -1 0
2890 1 3.1278532352454342e+00 1.9125164568551676e+00 1.9920290758855286e-01 0 1 1
3686 1 8.6879043801872902e-01 3.7548097649693329e-01 -1.1433156650572986e+00 -1 1 1
1059 2 4.1315033711232525e+00 5.1278391709040596e+00 -1.2966579240880516e-01 0 0 1
4346 1 4.0457971000237523e+00 1.0182009577254444e+01 2.0397243741584501e+00 -1 0 0
2449 1 4.7092069137050530e+00 6.7743190217976732e+00 -7.4810414280199544e-01 -1 1 1
4067 1 1.8717350440467988e+00 1.3248078427008112e+00 1.5717117743199278e+00 1 0 0
4048 1 5.4684771129274923e+00 4.0623355408164858e+00 3.3311267142746406e+00 0 1 0
3967 1 9.4035786620155069e+00 8.4502295836235319e+00 2.3409506727886011e+00 -1 0 0
2443 1 7.1371151990226878e+00 4.9039167631085236e+00 -1.2360457179178068e+00 -1 1 1
184 2 6.0598510110636461e+00 3.1159208059393889e-01 3.2955164773954673e+00 0 0 1
2273 1 5.1056168571267300e+00 5.5271252360100842e+00 1.8057414735646469e+00 1 0 1
1831 1 3.2853455085781129e+00 2.6532212491826851e-01 -3.5435358019455410e-01 0 0 0
1508 2 6.1244754062106832e-01 2.5077956471542739e+00 -8.6545359733751148e-01 1 1 0
166 2 4.6056962179993821e+00 1.0148046661017579e+01 -9.5454833296567232e-02 0 -1 1
2957 1 1.3226351078141327e+00 4.4731920774078722e+00 -1.2292387434362362e+00 2 0 1
3405 1 3.4022368933415650e+00 1.0065810200368023e+01 1.0675980736710589e-01 1 2 1
5044 1 1.3923341070602435e+00 2.1084716694415810e+00 -1.3870043359299231e+00 0 -1 1
3193 1 6.8186943698051055e+00 5.1802054851282628e+00 1.9140251352457756e+00 0 0 0
3793 1 7.9852578844906992e+00 2.2692456764182953e+00 3.1189571018369602e+00 1 2 1
2191 1 8.3078689939346528e+00 9.7403753975966401e-01 -1.9174970661704123e+00 0 -1 0
2905 1 5.3825045426389524e+00 2.7792932620040771e+00 -1.7769769186272932e-01 -1 0 1
1673 2 6.2002753199411273e+00 4.7396725623019478e+00 -1.2361238553018066e+00 0 1 1
2966 1 5.2040157386262429e+00 9.3243034406404401e-01 1.0724498056374374e+00 -2 0 1
687 2 4.8396580689783528e+00 1.7091644132243282e+00 1.7514018952757477e+00 0 1 0
400 2 7.4613400467089566e+00 4.5360291045836796e+00 2.2070164183114604e+00 0 0 1
4145 1 7.4158255729615208e-01 7.5261247559060118e+00 1.7393782059491869e+00 1 -1 0
1519 2 7.4878914311805005e+00 2.3251024609511162e+00 1.6177565813824377e+00 0 1 0
606 2 8.2576513849386846e+00 8.6532186184172275e+00 -1.5606571885699516e-01 0 0 1
171 2 6.1623160816424303e+00 3.3157736428252265e+00 3.3618863981079672e-01 0 0 1
1526 2 9.8624125508514453e+00 1.5789542308051863e+00 2.2768350032301088e+00 0 1 0
1521 2 1.0113420215270656e+01 2.0534491403505570e+00 -1.3124793692985892e+00 0 1 0
682 2 1.0361316276327464e+01 2.9427306833986604e+00 7.5729012614002489e-01 0 1 0
451 2 1.0071501138654289e+01 5.1243953567499902e+00 2.2957888607463675e+00 0 0 0
1827 1 5.5051775902150908e+00 2.3112337047292710e+00 1.8226631552188768e+00 1 -2 1
4476 1 1.1155463511369308e+00 6.3505021345957644e+00 2.3606495877629374e+00 2 3 0
2739 1 8.6426298159122723e+00 6.8362556934723673e-01 2.4032830255050932e+00 0 0 1
2500 1 7.8353795996900502e+00 7.6004444589171305e+00 -7.5447833336847836e-01 0 -2 1
4024 1 9.1524213665219651e+00 1.6014602293718485e+00 3.5877325238142621e-01 1 0 0
4502 1 8.4203659418240431e+00 4.9358299457867405e+00 1.8004456878764046e+00 -1 0 0
441 2 2.7904996890614657e+00 3.7651137694433650e+00 -1.5069620307809599e+00 0 1 0
3597 1 3.3663178387593908e+00 7.7584757178063866e+00 2.5547408729449650e+00 0 -1 1
2869 1 9.2518987289497794e+00 5.3523892124351349e+00 3.1804722969597385e+00 0 0 1
3830 1 9.7992802597804491e+00 4.3294183572803813e-01 1.4514577778127480e-01 1 -1 1
2864 1 4.0163561403137615e+00 3.0234606773638067e-01 1.8326147735334630e+00 -1 1 0
3911 1 3.2422941665471874e+00 1.7227517001235857e+00 2.1014071422538656e+00 -1 -1 0
4236 1 4.7580657590904183e+00 1.5171264015349128e+00 2.7685935506966013e+00 0 1 0
648 2 7.7779069237018437e+00 6.5948332881190943e+00 -1.2011835321271116e+00 0 1 0
1703 2 6.2226419478544681e-01 1.0163639611832696e+01 4.1707779278657853e-01 0 0 1
1737 1 7.5777760241905758e+00 4.5941389177376015e+00 1.7466808740822914e-01 0 1 0
3404 1 8.6869392371256771e-01 8.1531579457651340e+00 3.8212242384704798e-01 2 -1 1
2499 1 4.7858915580988430e+00 5.5308125892180966e+00 -5.2760339202029516e-01 -1 1 1
3734 1 1.9657599436222778e-01 9.2121691617479584e+00 2.5256692871947246e+00 1 1 1
3964 1 9.4066135654454754e+00 7.4761960522328970e+00 -3.4803361145720246e-01 0 1 0
2774 1 1.4789570738722191e+00 1.0084972287457791e+01 1.0294864684694081e+00 -1 0 0
207 2 6.6564871160931194e+00 6.6967581227605235e+00 3.2746058670687397e+00 0 0 0
2159 1 1.4391483086979970e+00 1.9519384886638005e+00 3.3137388689303560e+00 1 1 0
1137 2 2.7346561081612606e+00 5.2349766772663573e+00 1.7819537328358779e+00 1 0 0
1846 1 8.6700696964132185e+00 9.9354902904352418e+00 -3.0881843665934494e-01 0 0 0
175 2 4.9713269258941253e+00 4.5458714499242161e+00 1.6932700608599016e+00 0 0 1
3206 1 9.0553329607582125e+00 6.7295058185597503e+00 2.0197007065748438e+00 1 2 1
2939 1 3.7816009642837991e+00 4.5987250550467298e+00 -9.1663532341198928e-01 -1 1 1
3675 1 1.0018464564219245e+01 2.7924932955052615e+00 2.9324114593675334e+00 -1 2 0
567 2 3.7068718501763316e+00 8.7926639927104588e+00 -1.5984068004907837e+00 0 0 1
5012 1 5.7248166836566448e+00 3.2892450434607723e-01 1.6893707434465055e-02 2 0 0
413 2 9.6405013502831505e+00 4.1028454834641881e+00 -1.7057901654394421e+00 0 0 1
4457 1 7.9985633037457760e+00 9.0305409179928713e+00 -1.0824705461178894e+00 0 0 0
4615 1 1.8228694343697405e+00 8.6401268533069935e+00 1.5436641392782882e+00 2 1 0
479 2 4.8892521831439124e+00 8.6573129372262869e+00 1.7863780346219760e+00 0 0 0
2503 1 2.3392721534365876e-01 1.8249727357668908e+00 2.4455967826240732e+00 -1 -1 1
1553 2 5.9015405772093610e+00 2.8143416317885737e+00 3.2524583361669555e+00 0 1 0
3853 1 7.0029819337084076e+00 8.7602524842535558e+00 7.6690452932972430e-01 -1 -1 1
3010 1 5.2981959473365912e+00 6.7255139144097337e-02 2.4575316754382275e+00 0 0 1
2097 1 7.1504950149780671e+00 6.3377872005248310e+00 -1.7839478585927662e+00 -1 2 1
2253 1 5.0523414195301770e+00 8.4681124716641634e+00 2.8036215251624954e+00 1 0 0
615 2 9.9030813747084068e+00 6.8468983744158018e+00 -7.7047319105919754e-01 0 0 1
2992 1 3.3395618329131525e+00 3.4162395336062135e+00 -4.7243413072954010e-01 1 2 1
1742 1 4.0692370101259927e+00 8.8875586329885667e+00 1.6245041597872887e+00 -1 0 0
2144 1 9.3628216036302323e+00 3.1000537805600170e+00 1.1182741915354923e+00 1 0 1
1734 1 5.0831737584383889e+00 9.1459081151650814e+00 -1.3812742615763685e-01 0 1 0
1283 2 6.5407742929839978e+00 1.0843810017128384e+00 -1.4248125203228825e+00 0 0 1
1270 2 1.1361571239608503e+00 9.6756952502958207e+00 2.6619439527401871e+00 0 0 1
817 2 2.1475856185939906e+00 7.0664730006930725e+00 -1.2313225751732000e+00 0 1 1
254 2 1.0203964105402517e+00 7.3041712009210542e+00 7.9420549517185757e-01 0 0 0
1249 2 2.5679410300599628e+00 9.0649116650917243e+00 1.5127720964635127e-01 0 0 1
1277 2 4.7626456587790660e+00 2.5639632769605396e+00 -1.3235747555881354e+00 0 0 1
663 2 3.6329658373693432e+00 6.8863446045297252e+00 5.3195452375403196e-01 0 1 0
29 2 7.3653039470540831e+00 3.0104856138643346e+00 -1.4452575232700340e+00 0 0 0
2379 1 7.1438831557251810e+00 6.7127519358165220e+00 2.0085150893068060e+00 0 1 0
2676 1 2.9103435867925320e+00 8.3653144671208945e+00 5.4491433580909332e-01 0 -2 0
238 2 9.6669943964808152e+00 1.0441327367807526e+01 -7.8125125304022536e-01 0 0 0
419 2 6.0781528558763727e+00 8.5120906230388584e+00 -5.0378592732986238e-01 0 0 1
2235 1 6.2850489468638635e+00 9.1527216110321952e+00 -1.2040384267140913e+00 0 -2 0
621 2 2.5293187389211949e+00 8.0453431295762492e+00 2.2251403154071046e+00 0 0 1
3642 1 5.4482152358701830e-01 5.1642443639498881e+00 2.9767276721660707e-01 1 0 0
3612 1 2.7890943621095659e+00 9.9796074287844316e+00 -1.1776864336343758e+00 1 0 1
1 2 8.3406516565957727e+00 8.5519897050082039e-01 2.0445359967220922e-01 0 0 0
5065 1 6.1090946875106189e-01 3.4490680924243966e+00 1.9734820982936845e+00 2 0 1
3181 1 7.0373928869212126e+00 3.0901864719633565e+00 -2.1495286579371164e-01 1 1 0
385 2 8.4782796851042121e+00 6.8767714800087889e+00 1.1887808906287458e+00 0 0 1
2972 1 4.2087890370114334e-01 8.9021162404275245e+00 -6.0613550668607408e-01 0 -1 0
424 2 8.4891374115728340e+00 4.4497083749980577e+00 2.8645437922115535e-01 0 0 1
3912 1 4.0714661927010409e+00 2.7828773716418262e+00 1.0513963050077852e+00 -2 -1 0
4380 1 6.1845054697276725e+00 4.0237791261615330e+00 -6.9152836585308464e-01 0 0 0
2979 1 8.5696237972197142e+00 8.7758789073683428e+00 1.2745968726950774e+00 0 0 1
4934 1 9.9593966379331480e+00 6.0723095840485017e+00 -1.8962714325957715e+00 1 0 0
183 2 5.9689175917499826e+00 6.5123474309691396e+00 9.4290338530288942e-01 0 0 1
2973 1 4.5921174855614955e-01 5.8736388079378692e+00 -1.6445774385253076e+00 3 2 1
4106 1 3.3759367793100776e+00 5.8901035985291470e+00 8.9437278544725496e-01 0 -1 0
2735 1 6.2630979654210117e+00 7.7000655595331118e+00 -1.0608933435151560e+00 1 0 0
6 2 3.4939724907459828e+00 3.3681691361480213e+00 3.1350182135721125e+00 0 0 0
2889 1 7.8908891351233486e+00 3.2068311078986507e+00 1.7147469611188555e+00 0 2 0
1278 2 3.7838308265442938e-01 9.1814426879702715e+00 -1.6470265195069635e+00 1 0 1
47 2 3.7737155070138164e+00 6.3550469915893002e+00 3.2333645296075266e+00 0 0 0
4124 1 8.5103046148488062e+00 5.9498859739899910e+00 1.2026377447390977e+00 -1 2 1
2726 1 6.7763535946922051e+00 6.7990835068732318e+00 3.6813288234102082e-01 0 1 0
4538 1 2.7563467140120324e+00 5.8829021535021369e+00 2.5043663016411530e+00 0 1 0
4682 1 9.5035739788410534e-01 1.4212087395417821e+00 -1.0332801386335677e-01 1 0 1
3068 1 2.5694480175108159e+00 7.5641808055586717e+00 1.3323146346808707e+00 0 0 0
5125 1 6.6021260346891664e+00 1.0049028502973487e+01 1.9920906535108549e+00 0 0 1
2247 1 7.4483494956422440e+00 1.4072152727248606e+00 -1.4841523564889370e+00 -1 0 1
2457 1 7.3270136189048545e+00 8.6487807007441564e+00 2.6521025750390441e+00 -2 -1 0
11 2 1.5807325222584141e+00 6.2073314333121052e+00 3.3160557477986039e+00 0 0 0
211 2 6.9530265616037052e+00 9.2284008520164331e+00 1.7257321714224898e+00 0 0 0
2622 1 1.0443674870001040e+01 9.2865577557733725e-01 2.7666625668699796e+00 -2 1 0
1779 1 9.7045995072699096e+00 9.7631286092150997e+00 -1.6222912512081695e+00 0 1 0
4171 1 1.8474073532219706e+00 3.3746153254418281e+00 7.7087278394540037e-01 1 0 1
3961 1 2.0480929488994830e+00 5.3734881302416895e+00 6.8832429867151079e-01 1 0 0
3915 1 8.9000184774541644e+00 4.0145442830078242e+00 -5.3766786557501822e-01 -2 0 0
2707 1 9.9374707723779281e+00 1.0206651541199182e+01 2.2899501261735553e+00 1 1 0
4484 1 6.3272683320791243e+00 3.9566778742845843e+00 1.1318794697817500e+00 -1 1 1
2777 1 6.6139876344081445e+00 3.4530684416382620e+00 2.8534747169798553e+00 -1 1 0
4679 1 5.6495936945637801e+00 7.5830001515963570e+00 9.3573902676832077e-01 1 1 1
4651 1 2.4344694009721959e+00 4.7828848093536367e+00 -1.8776628567278415e+00 1 1 1
2084 1 1.0342227622676761e+01 6.3900494921955113e+00 -5.6276983324480723e-02 0 -2 1
4927 1 3.3709216812845093e+00 1.0279772903190148e+01 1.7330040000446774e+00 1 0 0
1790 1 5.5184031832369067e+00 9.6499932500089241e+00 3.0980534675165829e+00 1 0 0
34 2 1.8415925657822334e+00 1.5269630200263020e+00 7.2489739490247853e+00 0 0 0
834 2 4.0820176412464271e+00 1.8136555033707760e+00 7.2999968466300817e+00 0 1 1
33 2 2.8846090699185907e+00 3.4197853902132080e+00 7.0285741521113820e+00 0 0 0
16 2 4.5824011026527804e+00 3.2384180643008880e+00 5.3359095517308708e+00 0 0 0
205 2 5.0322470069869336e+00 4.8221639985823490e+00 7.5172940758622282e+00 0 0 0
472 2 2.9618177434880502e+00 4.8244176555067719e+00 4.9440178708165812e+00 0 0 0
1527 2 4.3986928108497683e+00 1.2871554064656838e+00 3.8792012095194641e+00 1 1 0
452 2 5.5442730685881161e+00 1.0324484461517752e+01 3.7913644539876357e+00 0 0 0
488 2 9.2044920590553914e-01 4.7947991937737324e+00 7.3734229342119058e+00 0 0 0
15 2 2.4891674977132685e+00 1.8394234135665244e+00 5.0176158441011358e+00 0 0 0
2892 1 4.2971988424917589e+00 9.9401544812465872e+00 4.6110512637082106e+00 0 0 1
44 2 6.2145258545350250e+00 1.0076173695824444e+01 7.5725776851185227e+00 0 0 0
2863 1 6.1510747328509163e+00 9.6067541813412305e+00 6.7488322434899022e+00 0 -1 0
3197 1 7.0659839649048486e+00 3.7746341373872996e+00 5.3927958567162015e+00 0 2 0
225 2 1.0616213469406768e+00 4.0042729045724625e+00 3.6964710028530687e+00 0 0 0
3654 1 4.3147077049003713e+00 5.2804563499395005e+00 7.0748008301519043e+00 1 1 1
624 2 9.7209984670259098e-01 3.4588986534882062e+00 5.9593265692382369e+00 0 0 1
4032 1 4.2029025959697774e+00 6.9050676461082992e+00 5.6698787087485272e+00 0 0 0
3272 1 1.1647498402494509e+00 3.4634674807271955e+00 4.4783718339189731e+00 0 0 0
3055 1 3.4478334845190544e+00 7.9671854308435641e+00 7.9374761424185074e+00 0 0 -1
3712 1 4.5011178275256034e+00 6.3355652402587088e+00 3.5960748433155993e+00 2 0 0
4741 1 7.6317734433712427e+00 6.4450178048904752e+00 6.5554641900573749e+00 -1 0 1
3496 1 1.6227615294461961e+00 5.5841581733272561e+00 7.1529982648881028e+00 2 -2 0
1857 1 2.0162851675968705e+00 1.6867237637285748e-01 6.5593823638042164e+00 0 -1 0
4841 1 4.0563744927846894e+00 8.2535590948258069e+00 4.0948550399555419e+00 1 2 0
4035 1 8.6577191991412299e+00 8.1542585609682590e+00 6.7488681245613105e+00 1 0 0
4212 1 3.7128216376373500e+00 1.0208141544672060e+01 7.9708873874368020e+00 0 2 1
1092 2 9.5745262153236705e+00 4.2663999437643509e+00 5.9208088100039431e+00 0 0 0
217 2 9.4758919485688438e+00 7.1048284296206843e+00 3.4049501291737707e+00 0 0 0
3635 1 6.9119819335501775e-01 6.7925241160758176e+00 6.8668796268317074e+00 0 -1 0
4537 1 3.9343427113678814e-01 3.2578223437351661e+00 6.5390169954754285e+00 2 2 0
3299 1 5.2721227844108345e+00 3.1253214347787939e+00 8.2295280798759531e+00 0 0 0
2345 1 3.1575073407030967e+00 6.8553681002695104e+00 6.3692376055289355e+00 0 -1 1
4084 1 3.6021624008375377e+00 5.4777397963318615e+00 3.3547070095056934e+00 1 0 -1
1958 1 7.2731330987988603e+00 1.3205422690538424e+00 4.9092669455795885e+00 0 1 0
4939 1 7.6656974911121072e+00 5.4729943673799779e+00 7.3618545138875966e+00 -1 1 0
3232 1 1.4946281391265752e+00 4.9875821840563672e+00 3.5949956358432047e+00 0 1 0
2797 1 4.8060258413393981e+00 2.2738267271497525e+00 5.3105341319634478e+00 2 2 1
3069 1 5.7467869580639492e+00 5.3487705052173622e+00 5.7972347994172670e+00 0 2 -1
46 2 7.4903374199266715e-01 1.3235328280487768e+00 3.6310757620690239e+00 0 0 0
4289 1 5.7431690418896801e+00 6.9352269580054520e+00 6.3975891107423610e+00 0 -1 1
4482 1 7.6321340440207175e+00 5.1384379295883997e+00 4.4312297915866719e+00 1 1 0
4674 1 9.1142783676179704e+00 6.1390900573148821e-01 5.4276048110690773e+00 0 0 1
675 2 6.4481164571713929e+00 6.6481751265976747e+00 7.3953714083229425e+00 0 1 0
2742 1 7.4448917386473257e+00 6.4070979247667070e-01 7.7942931428062021e+00 1 2 0
4419 1 2.0924140927469121e+00 4.0095573252220129e+00 6.8322676379353151e+00 0 1 0
3559 1 2.5578329646331821e+00 5.6311081092127973e+00 5.5539807161888621e+00 1 1 0
5130 1 3.6347329942716837e+00 1.4361223337422855e+00 8.3259563451056451e+00 -1 0 1
3722 1 1.6366880994126718e+00 9.2929661428587895e+00 7.8097247654184230e+00 1 1 0
1752 1 7.9294851969705089e+00 8.9517144847915375e+00 8.1527376189469454e+00 1 1 0
3931 1 3.9793000645299283e+00 5.3468207037932247e+00 5.2959390035352625e+00 0 1 0
706 2 9.6812220408970102e+00 2.4607432375463243e+00 7.3125064554585038e+00 0 1 0
4341 1 4.3765832903300543e+00 3.3690570649533452e-01 4.1136128806026973e+00 0 0 0
24 2 6.5120219333506260e+00 4.6751455986102313e+00 5.8507421188003583e+00 0 0 0
894 2 7.5119551040785923e+00 1.3037156652414719e+00 7.0529862029025256e+00 1 0 0
415 2 8.0078514905760976e+00 3.1166472501629015e+00 5.4660982072556630e+00 0 0 1
38 2 6.2172671126701893e+00 2.8274947808742565e+00 7.5957708578252365e+00 0 0 0
1103 2 7.7491461347195365e+00 4.7558090331396832e+00 7.7402849493686023e+00 0 0 0
224 2 6.1410291044624472e+00 1.2813907383259757e+00 5.4674909923078383e+00 0 0 0
3807 1 9.6244410711687500e+00 1.1334039832799294e+00 7.8437288417569260e+00 0 0 0
26 2 9.6117103127668280e+00 1.2581344169739868e+00 5.6528666148045348e+00 -1 0 0
3957 1 4.9582842357509531e-02 5.5914895561002336e+00 5.3854240206105883e+00 1 0 0
3889 1 2.0547178807803039e+00 7.9546961061942145e+00 7.3642121120460278e+00 0 0 1
1067 2 8.4869170758523929e+00 4.9964761488840432e+00 4.1310262919148171e+00 0 0 0
3920 1 9.2979994135415520e+00 9.7284126656865659e+00 7.2576000040000821e+00 1 -1 -1
3963 1 8.7887057815625713e+00 4.7013549783018416e+00 7.7881931454883411e+00 0 -1 -1
3768 1 9.7920023022115998e+00 6.4196509288234793e+00 7.7623988774194874e+00 0 1 1
5138 1 7.0676831636174011e+00 8.7228290489292508e+00 5.0983124967823983e+00 0 1 1
2439 1 1.5073483356572395e+00 7.9711877785860130e+00 5.8151276604416529e+00 0 1 1
2472 1 5.8964219855618270e+00 1.5712544011626988e+00 6.5577694348962030e+00 0 -1 0
3165 1 8.9753726141903805e+00 3.6996273884599491e+00 5.4079798692031815e+00 0 0 0
3786 1 9.2232431123046243e+00 2.2655151864229937e+00 3.8283742333575876e+00 -1 1 0
4406 1 7.0200924507175930e+00 7.3169068175899419e+00 5.5353957373788099e+00 1 1 0
4668 1 2.1188750556221723e+00 2.2600791332402412e+00 5.7883196151102174e+00 -1 0 1
3538 1 8.4079757556815675e+00 6.7959458580700938e-01 6.6902189932324170e+00 0 -2 0
466 2 1.1881054149928867e+00 9.8636172476258217e+00 8.5589473857168645e+00 0 0 0
244 2 9.7738777277683315e+00 3.0471162897214401e+00 3.9739099669561755e+00 0 0 0
5009 1 8.9780638726640074e+00 5.6769500625262159e+00 4.8915850895763873e+00 1 -2 0
2137 1 1.2757059008692770e+00 6.6744486695982730e-01 8.4849297171655174e+00 0 1 1
265 2 7.9668614068484738e+00 6.5774141355574836e+00 5.6440456477244556e+00 0 0 0
2154 1 4.9777356709589710e-01 7.4853717492707537e+00 3.4769302657152101e+00 1 -1 1
4628 1 5.8657222481410365e+00 7.5748693716549793e+00 3.7761124391339029e+00 0 1 1
8 2 7.6043968962603348e+00 8.5999539154947655e+00 3.7875300056705665e+00 0 0 0
3168 1 2.9529014783197014e+00 8.3897743778293099e-01 5.2742303172005940e+00 -1 1 0
3151 1 5.9997303374399209e+00 7.9532055653477318e+00 4.6365056802038094e+00 1 0 1
2533 1 9.1743304868413720e+00 8.0491440957500107e+00 3.6149751231738669e+00 0 0 1
3070 1 3.4941948013620192e+00 1.4674754359665776e+00 3.9148731076474288e+00 -1 1 0
3671 1 4.4988041723077696e+00 2.6937065351762466e+00 7.2123223919442285e+00 3 0 0
4411 1 7.0791123877695634e+00 2.3880921059564386e+00 7.0996618799917357e+00 2 0 -1
4284 1 9.9695074704661675e+00 6.6483224871214741e+00 4.1370612395269566e+00 0 1 1
3816 1 2.3376407104411463e+00 1.0188635043034539e+01 5.5935442038796710e+00 1 0 1
1317 2 3.3393846808306296e+00 9.2918387548632602e+00 3.6227847195510030e+00 1 0 0
4748 1 5.5034546755235461e+00 5.7730918137681775e-01 4.9767081555830499e+00 1 0 1
4110 1 1.2755594673316941e+00 6.0655554486800760e+00 4.6520138088593912e+00 1 -1 0
4388 1 2.8144144293899438e+00 8.5016618486829660e+00 5.3545578151714670e+00 1 1 0
4043 1 6.0461975246320137e+00 6.0355779801056126e+00 7.8928547484469807e+00 0 2 0
2009 1 4.2484269801936803e+00 8.7976053753150207e+00 7.0158242756206519e+00 1 0 1
2698 1 3.4779623575569634e+00 3.5378567055623491e+00 6.3834784283812773e+00 0 1 0
3348 1 6.6211202260864699e+00 1.1193707467450755e+00 3.6079622465263377e+00 0 1 1
442 2 5.7511111596234044e-01 7.7618653629691901e+00 4.5234542417380190e+00 0 0 0
4510 1 1.0403989656699704e+01 3.8418123134074742e+00 6.0439983619580069e+00 0 -1 0
495 2 2.8940950366982086e+00 7.6284106218421135e+00 4.8866041573393852e+00 0 0 0
909 2 1.2877079850761914e+00 7.9020541912701434e+00 6.7633356016631261e+00 1 0 0
449 2 2.7045465114621612e+00 6.3402787873761719e+00 6.9826595637438853e+00 0 0 0
273 2 4.5921800277104881e+00 8.0558490703917158e+00 7.3615453318323283e+00 0 0 0
664 2 9.6513730654707963e-01 5.7857767175559855e+00 5.6512081329492068e+00 1 1 0
248 2 1.7467307626264337e+00 9.5209978879086012e+00 5.2959867235602909e+00 0 0 0
1520 2 4.6529633382490294e+00 9.9563586064236329e+00 5.6933744741341981e+00 0 0 0
231 2 3.2406233472388548e+00 9.8104852057489840e+00 7.0523777920532815e+00 0 0 0
1320 2 4.7626482542559092e+00 5.9794289888946119e+00 5.6696377833784073e+00 1 0 0
1826 1 1.0331085379081686e-01 7.0186118610563266e+00 8.0634404287498125e+00 1 0 0
1755 1 5.1428277515336838e+00 1.3826997026606267e+00 7.7033388553366713e+00 0 1 0
3822 1 8.1271706560155508e+00 1.8712913366221069e+00 5.5251751851702275e+00 -1 0 0
2827 1 5.1772603564441155e+00 9.2382034236602237e+00 5.7222208769911109e+00 1 1 1
3764 1 5.9617077115840456e-01 8.9606052461605898e+00 6.3858206472153789e+00 1 1 1
2573 1 9.9731573506751001e+00 2.7288051215722038e+00 8.2989983306274286e+00 1 1 1
1085 2 8.0850764253495093e+00 1.7704562872036556e+00 3.9190045413078121e+00 0 0 0
2257 1 2.4552657509036102e+00 7.0143377824225785e+00 3.9304975689775485e+00 0 2 0
2408 1 4.9974152946102084e+00 4.7332372655978805e+00 8.4387633141409797e+00 0 0 0
245 2 9.8023334555040478e+00 8.2312392595352541e+00 5.6024277696384264e+00 0 0 0
448 2 5.0637879393247260e+00 8.1201095870294289e+00 4.2577437127347091e+00 0 0 0
3571 1 1.4276132851981225e+00 8.3921194983673946e+00 4.1189813929812233e+00 0 -1 0
1992 1 3.0222419138281622e+00 6.2184331044766079e+00 7.8726516659229908e+00 1 -1 1
18 2 5.7756573807611478e+00 4.7602549934036373e+00 4.2118777506134704e+00 0 0 0
4466 1 6.6284808723034407e+00 4.1893174079800053e+00 6.8372610313268574e+00 1 0 0
2517 1 5.9799636458839442e+00 2.4839143430416395e+00 4.3292683222798702e+00 2 0 0
3298 1 4.9242467544422288e+00 6.8669021893355060e+00 8.1520028887472957e+00 0 0 1
3903 1 7.2862769084304579e+00 7.7217150370316059e+00 7.3387199145367177e+00 3 -1 1
1267 2 5.3994753897240138e+00 1.4037373108143250e-01 7.3905716510196253e+00 0 0 1
4995 1 4.6991723969909298e+00 4.1070834413883013e+00 5.8995101356535695e+00 0 0 1
4565 1 3.7791147936951011e+00 4.0224275843651620e+00 3.7663987909037839e+00 1 2 1
646 2 6.5204726113230764e+00 8.3069119334046988e+00 5.7276294160892069e+00 0 0 0
3083 1 7.4218908179444236e+00 6.6942373283426821e+00 3.9649746380800970e+00 0 0 -1
3890 1 8.7467980110111263e+00 7.5041357987102018e+00 5.5168342228874758e+00 1 0 1
3985 1 2.7250655674099500e+00 9.3215834069946990e-01 7.3172840246748958e+00 2 -2 0
1086 2 9.8101705457012578e+00 9.8242381165594352e+00 4.0681443726374695e+00 0 0 0
2116 1 8.7073984410115965e+00 9.3099929695075776e+00 4.9919211182647514e+00 -1 2 1
4288 1 8.2444243286824659e-01 1.9409002950933969e+00 6.4246122416739926e+00 -1 0 1
256 2 8.0019119366476108e+00 8.7758564307619338e+00 7.1435021892033230e+00 0 0 0
5099 1 8.0927415613562612e+00 2.7568116446124287e+00 4.5670073727037011e+00 2 0 1
2096 1 9.9435564616156693e+00 7.2332224352686820e+00 6.4265962042403846e+00 -1 -2 0
40 2 9.8408973306343661e+00 6.2358532770528559e+00 6.8759400510465198e+00 0 0 0
3322 1 4.8608832933932984e+00 4.5731934670290073e+00 4.5240459079270385e+00 0 -1 1
4231 1 6.8874011588946908e+00 3.3356292246047703e+00 8.3047082881523497e+00 1 2 1
3217 1 3.6959439902026836e-01 9.2372061800465168e+00 8.3979896619271077e+00 -2 0 0
3377 1 9.9529507865872908e+00 2.3674779899620204e+00 5.3053489008056998e+00 -1 0 1
4279 1 1.7047487140704103e+00 1.4791010937140516e+00 4.6472485091223366e+00 2 1 1
2318 1 9.0255719765856099e+00 3.9352945686076435e+00 3.9559235776539383e+00 -1 1 0
3033 1 8.9951100778658120e+00 9.8459314015725923e+00 3.6942957674376098e+00 2 0 1
3248 1 1.7368014217529550e+00 2.1960878564615229e+00 8.1026884127833778e+00 -1 1 0
1540 2 8.1665195627813549e+00 1.0278673453940387e+01 5.5227453358840579e+00 0 0 0
1956 1 8.7261264467828248e+00 2.5568060509286186e+00 7.1901248784677794e+00 0 -1 0
3542 1 1.0253086670364843e-01 2.0848566535284228e+00 4.7405641746170897e+00 0 0 0
4577 1 3.8889618952298162e+00 2.5691780034897636e+00 3.4996062766096188e+00 1 1 0
3268 1 3.4731346927453037e+00 1.0406723560488317e+01 3.6299589916662365e+00 1 1 1
2831 1 1.4385642700019261e+00 4.7446665825354879e+00 5.2235219432845863e+00 1 0 0
2914 1 7.9886025332889936e+00 6.7101759826117480e+00 8.2860254114307690e+00 1 -1 1
3621 1 1.5610679691888958e+00 4.2298839481348738e+00 8.2362086539154227e+00 0 0 0
4442 1 9.2801903378876762e+00 8.2732806357764144e+00 8.1733267350444496e+00 0 1 0
3773 1 1.7416128327688045e+00 9.9257155362089637e+00 4.3572354741703894e+00 0 1 0
4817 1 6.0271511650684397e+00 5.6817306744508125e+00 3.7255100643044239e+00 0 3 0
3913 1 5.1512173195165509e+00 9.3556195363349666e+00 8.5840362102140055e+00 -1 0 0
4092 1 6.7244790464982858e+00 8.0407482413336329e+00 8.5572152470975649e+00 2 3 0
2658 1 1.0432006804567495e+01 9.2053075688268873e+00 3.4944054894853114e+00 0 0 0
53 2 4.7284880218182037e+00 1.0850692639733417e+00 1.1122552568838488e+01 0 0 0
55 2 3.1072737364913166e+00 1.2555972241812405e+00 1.2745942114179934e+01 0 0 0
61 2 4.7094106916420069e+00 3.1855412263676013e+00 1.2714356615940130e+01 0 0 0
936 2 8.7699973707685308e-01 3.1804661885984244e+00 1.2713730409411871e+01 1 0 0
52 2 3.2363826250712568e+00 3.2041426413657277e+00 1.1041234658828115e+01 0 0 0
692 2 1.5096124286388000e+00 1.4748730130956840e+00 1.1023051733111288e+01 0 1 0
57 2 2.6136589503108714e+00 5.2882563980270945e+00 9.4277088414924819e+00 0 0 0
240 2 4.4104404700786697e+00 3.3309498455204176e+00 8.9828969512075236e+00 0 0 0
59 2 4.4739289575264696e+00 5.0669870734520046e+00 1.1300349127676926e+01 0 0 0
311 2 3.3958196155983629e+00 1.3339924054003895e+00 9.3642282463446396e+00 0 0 0
1178 2 8.0432150591843210e-01 4.5703475775482199e+00 1.0542462016378858e+01 1 0 0
62 2 2.5171110601782756e+00 5.0091573506667713e+00 1.2517888321442884e+01 0 0 0
927 2 1.9995858284372123e+00 3.1439916017900669e+00 9.0981117621733514e+00 1 0 0
3981 1 3.5915834851967321e+00 3.1194317736704078e+00 1.1952981214403643e+01 1 0 0
2466 1 7.4143133267329535e+00 6.4590386115328489e+00 1.3616583996500779e+01 -2 2 1
270 2 9.8598545393535773e+00 6.7915929093879646e+00 1.0805785830831660e+01 0 0 0
3135 1 5.1759787888589104e+00 8.9248705092712104e+00 9.9790599801611020e+00 0 -1 0
4215 1 2.4015853319525990e+00 3.0925905183045934e+00 1.0602170538027552e+01 2 -1 1
3208 1 1.0193305369837937e+01 4.7317353152659409e+00 1.2297112249000653e+01 1 0 0
274 2 8.1755549402064123e+00 1.0084257655384661e+01 9.1719090089668942e+00 0 0 0
4138 1 8.0839792777765282e+00 5.6594947073904365e+00 1.2183346843504539e+01 0 -1 0
2823 1 5.4709747498533572e+00 7.7172271813782967e+00 1.1294504452194060e+01 2 1 1
1776 1 1.6923377178517813e+00 3.6017200890006826e+00 1.2502272271567055e+01 2 0 -1
3839 1 2.4916387454817737e+00 1.7837702110579252e+00 9.2567780947171343e+00 0 1 1
3936 1 6.0555431346833579e+00 4.4242721192553516e+00 1.1085425927182653e+01 0 1 0
5036 1 4.5875481196023715e+00 1.8274750724597177e+00 1.1506472178203675e+01 0 0 1
3855 1 2.2173345199721983e-01 8.3479062883543307e+00 1.2029799601135277e+01 1 0 1
3101 1 3.3278028150607493e+00 9.4007433346653801e+00 9.1200290586127082e+00 0 -1 0
3476 1 1.8348458910719689e-01 1.0422219733951120e+01 1.1705142622848436e+01 1 -1 0
2536 1 3.5069980475988416e+00 1.9073383757505465e-03 1.2649495253897163e+01 2 0 1
3586 1 8.2968809425222005e+00 1.4778617230308044e+00 9.3443662822944482e+00 -1 0 0
492 2 4.3988859692811335e+00 9.9989904444557691e+00 9.0499215589180366e+00 0 0 0
5142 1 3.4632754281516853e-01 2.1945881018761031e+00 1.0008963558889482e+01 1 2 0
3157 1 3.9707897393788905e+00 7.6763631904516771e-01 1.0686852600659440e+01 0 1 0
3060 1 2.7413920471435489e+00 7.6233703673889375e+00 1.3374958369270828e+01 -1 1 0
3013 1 6.5260681926210555e+00 5.9693349003595699e+00 1.0039344967164412e+01 1 0 1
4785 1 2.4798257141025402e+00 6.2262724079132221e+00 1.0066815737542834e+01 0 -1 0
4039 1 1.5804823305854225e+00 6.6977550542179398e-01 1.2560432913541133e+01 0 1 0
4642 1 9.0602336895872018e+00 2.5039847488435391e-01 9.0135434193880410e+00 0 0 0