LAMMPS data file via write_data, version 5 Jun 2019, timestep = 11103

8748 atoms
2 atom types

-5.4315090662919729e-02 2.6449065090663012e+01 xlo xhi
-5.4315090662919729e-02 2.6449065090663012e+01 ylo yhi
-6.5875221289643306e+00 5.9377022128964398e+01 zlo zhi

Masses

1 1.008
2 15.9994

Atoms # atomic

1 2 9.5850040160480887e-01 1.6417128988647258e+00 -5.2010774043294692e+00 0 0 0
3 2 2.8394427993088884e+00 2.8108604819214231e+00 -3.1238407670018900e+00 0 0 0
2931 1 1.7465986073638320e+00 1.6690041287784323e+00 -4.6257930413389614e+00 0 0 0
2936 1 3.2090640091649347e+00 3.4218756702591828e+00 -2.4703326430527257e+00 0 0 0
2937 1 3.4368811416601547e-01 1.3141066544329738e+00 -4.5360526037898081e+00 0 0 0
2938 1 3.6974094312359611e+00 2.4544179704225750e+00 -3.4109447987938033e+00 0 0 0
5887 1 2.6747378330143035e-01 2.7710302491056482e+00 -5.9478927482704256e+00 1 0 0
4213 1 2.0431759221324048e+00 3.8205481656718785e+00 -5.4840533189217098e+00 0 0 1
2 2 1.5704109617936417e+00 1.4324842662096922e+00 -1.4306576822403834e+00 0 0 0
4 2 2.9991854782159870e+00 2.7144426910554236e+00 2.7746088550867576e-02 0 0 0
74 2 8.6042752358387442e-01 1.8762286201100784e+00 1.1501827142532282e+00 0 0 0
2917 1 2.1078081224848324e+00 1.8787458940584860e+00 -2.1991689317578498e+00 0 0 0
2927 1 8.7832543544367481e-01 2.0114993473528253e+00 -1.5786188257525886e+00 0 0 0
3268 1 3.0078257218704483e+00 2.9353212059137652e+00 1.0024628625535792e+00 0 0 0
2992 1 2.4837718661953678e+00 3.4512328155466827e+00 -4.3693238151220193e-01 0 0 0
2920 1 3.7924106232099772e+00 1.7161121332368388e+00 -9.1120052038621235e-01 0 0 0
3053 1 3.2807041320681449e+00 2.3103219573652733e+00 -6.0638046424853353e+00 0 0 0
7 2 4.4134433596711302e+00 4.2388735765329209e+00 -4.8321014161148392e+00 0 0 0
5948 1 1.1162226630484238e+00 1.5757192528454591e+00 2.4749231390367665e-01 1 0 0
2969 1 3.3992580986918495e+00 1.1560958352506880e+00 -4.6941252918968255e+00 0 0 0
15 2 3.9064631320108711e+00 1.3985755954751133e+00 -5.4842843727428781e+00 0 0 0
3071 1 1.0113415638511427e+00 4.0097810703675583e+00 -2.3109467850649983e+00 0 0 0
2918 1 3.2113613874854123e+00 3.3378556995997199e-01 -6.1353330396163992e+00 0 0 0
1584 2 4.2360050714862985e-01 4.2931295355086432e+00 1.1594556431560221e+00 1 0 0
4231 1 4.6241681103509711e+00 9.1058188872941503e+00 -6.5760472107699695e+00 0 0 1
2192 2 4.4184134822541632e-03 5.8781118727721351e+00 -6.4439633080628518e+00 1 0 1
2935 1 6.2716464402203764e-01 2.9413147071319625e+00 1.1773780085205310e+00 0 0 0
5967 1 2.0105045422296991e-01 3.8086909302165188e+00 -3.9030614820619531e+00 1 0 0
2951 1 3.5805936263583376e+00 7.5593950673824195e-01 1.1512806039659012e+00 0 0 0
749 2 1.8892986122088451e-02 3.1627185660056484e-01 -3.3335735814049063e+00 0 1 0
9 2 4.2297148450973676e+00 1.2195456090464181e+00 -1.6218068784351836e+00 0 0 0
2987 1 4.2069375911495221e+00 2.9711877881715043e-01 -1.4714619852886708e+00 0 0 0
4463 1 9.1646672535844989e+00 2.5777344403895724e-01 -2.7907966767211878e+00 0 1 0
17 2 7.1168660350582140e+00 1.1424189784287229e+00 -4.7373912450024962e+00 0 0 0
19 2 5.7439006699649022e+00 2.5581783635268627e+00 -3.1786534727958244e+00 0 0 0
2940 1 6.0737401871725050e+00 3.9409146621942521e+00 -4.9178162023137428e+00 0 0 0
2949 1 7.5883214601822777e+00 1.7518425610022375e+00 -5.3104151840584031e+00 0 0 0
2983 1 6.2996855102351921e+00 1.6475087780193389e+00 -4.4600078641636633e+00 0 0 0
3019 1 7.5768731111611096e+00 3.9021941716229462e+00 -4.1883611626181620e+00 0 0 0
2942 1 5.2161231587017785e+00 2.1853913302262384e+00 -2.4086459994460325e+00 0 0 0
3001 1 6.3662964583606083e+00 3.1836723311052877e+00 -2.6944679094548047e+00 0 0 0
2941 1 7.5026354635204813e+00 1.4061897413799596e+00 -1.0715089342812325e+00 0 0 0
18 2 7.3137840099900640e+00 9.9043550484484433e-01 -1.9089180991379102e+00 0 0 0
20 2 5.5286959463781526e+00 2.9720616294062001e+00 -1.0005677335192509e-01 0 0 0
2939 1 7.6080496119229810e+00 1.6516146143348354e+00 -2.5519413716440766e+00 0 0 0
2944 1 7.8186799282612958e+00 3.5258860712797282e+00 -1.3052846106331781e+00 0 0 0
2995 1 5.6760475717088177e+00 2.0359592124512682e+00 -9.3487438901576070e-02 0 0 0
2961 1 8.2746280776371961e+00 2.3765985091383142e+00 6.5340222731274000e-01 0 0 0
3223 1 4.5561582428082703e+00 3.1391236132246481e+00 2.6981699452297114e-02 0 0 0
23 2 8.5055944749034733e+00 2.6280844401018260e+00 -2.3383592437945477e-01 0 0 0
4526 1 6.3130257480629934e+00 4.9201158865410144e-01 -5.9250964899193361e+00 0 1 0
4435 1 4.9930862069869599e+00 -2.5364861703675995e-03 -3.7685083072486312e+00 0 1 0
49 2 7.0670858506702734e+00 4.0583681242784699e+00 -1.6531051375627319e+00 0 0 0
73 2 8.4143172341108077e+00 3.0043657535449495e+00 -6.5666566081908178e+00 0 0 0
21 2 8.6352758377044800e+00 3.1539439681382708e+00 -3.4614744417610401e+00 0 0 0
4528 1 6.8709719461482779e+00 4.5962573989651712e-01 8.1355328645272174e-01 0 1 0
3080 1 6.3518786502734361e+00 3.6546556463994171e+00 -1.0313444630698871e+00 0 0 0
3111 1 6.6728396233318712e+00 4.0221183858116429e+00 7.2420430930592428e-01 0 0 0
4559 1 6.1126642246177054e+00 4.5660949707660703e-01 -2.7575173781441951e+00 0 1 0
4366 1 5.2395308174121666e+00 2.4317805388759277e+00 -5.8800204936877050e+00 0 0 1
48 2 5.9810591677799163e+00 6.4118838954242929e-01 4.9012324304546429e-01 0 0 0
82 2 5.8443654089234851e+00 2.8021188420316632e+00 -6.5205201854219759e+00 0 0 0
4328 1 7.6198993280835641e+00 3.4545570853371084e+00 -6.1207385468552573e+00 0 0 1
761 2 1.1357663585320406e+01 -1.8985089195715815e-02 -9.9540232840018561e-03 0 1 0
6198 1 1.2725051682095566e+01 9.1231532483314626e-01 9.6477476528993922e-01 0 0 0
3028 1 1.2659693178966164e+01 3.6077899928179007e+00 -5.2125173586833702e+00 0 0 0
3076 1 1.0068737367902214e+01 8.6777274462750487e-01 -4.3072743319991833e+00 0 0 0
2971 1 9.2244677999968125e+00 3.5495960722458335e+00 -2.8143863035221410e+00 0 0 0
28 2 1.0021096097878710e+01 1.5547286913216543e+00 -5.0131280626559933e+00 0 0 0
30 2 1.1529779631590637e+01 2.5169881942141958e+00 -3.2733314699656102e+00 0 0 0
2957 1 9.0091471086138224e+00 2.2999729151681403e+00 -3.9098227757879935e+00 0 0 0
5865 1 1.1032576197219997e+01 3.0161894298221834e+00 -4.0664798122790433e+00 0 0 0
2968 1 1.2233326207758211e+01 3.1653113342002133e+00 -3.0914852618476680e+00 0 0 0
3042 1 9.8094882978898941e+00 1.1018195392289705e+00 -5.8017900705419159e+00 0 0 0
8 2 1.2691850096928487e+01 1.6446919139032208e+00 -5.2449157903733212e+00 0 0 0
4236 1 1.2195605820954626e+01 1.1348119382158861e+00 -5.9193419427300693e+00 0 0 1
4496 1 1.0525562439762739e+01 6.0844748536465165e-01 -1.1134821113942550e+00 0 1 0
29 2 9.9590850649272937e+00 1.2502228222898943e+00 -1.6773597477440676e+00 0 0 0
31 2 1.1630729401526944e+01 2.9095922429358758e+00 -3.1555322653923135e-01 0 0 0
2954 1 1.0666327469438338e+01 1.7948114602198908e+00 -2.1665669311203120e+00 0 0 0
2956 1 9.1995001307251361e+00 2.1559261819835362e+00 -6.9989455715890081e-01 0 0 0
2958 1 1.1679983574411098e+01 3.6443858399922280e+00 4.2966212440016971e-01 0 0 0
3052 1 1.0754413479816407e+01 3.4133598657134967e+00 -1.3526863722006368e+00 0 0 0
3273 1 1.1032037772303436e+01 2.2091804364307341e+00 7.2962748732660287e-02 0 0 0
4377 1 1.0903890712341788e+01 2.8655295091932045e+00 -6.2606567610581445e+00 0 0 1
4396 1 1.2294923970764870e+01 4.9370523920812637e-01 -2.7654212367908246e+00 0 1 0
33 2 1.0296386258832262e+01 4.2019448981895993e+00 -1.8769077057942436e+00 0 0 0
5928 1 1.2936025079080775e+01 2.3511628017181332e+00 -1.2136831901576715e+00 0 0 0
32 2 1.1542145964967890e+01 1.1894448276074097e+01 -3.3644786432987743e+00 0 0 0
1535 2 1.3117190488579038e+01 4.2430216450028420e+00 -1.7426607802825282e+00 0 0 0
2934 1 9.1657239597094726e+00 5.6807831769375383e-01 7.2231278969501300e-01 0 0 0
2966 1 1.2926628882308243e+01 8.2937427572740630e-01 -7.5827605240012996e-01 0 0 0
793 2 1.1594958214319476e+01 -2.8493091260638270e-02 -6.5770075341730685e+00 0 1 0
5 2 1.2474691449306408e+00 4.2838111788255313e+00 -1.4231294657135134e+00 0 0 0
6056 1 1.1988883371416061e+00 5.0145161426034006e+00 8.5871849275176970e-01 1 0 0
38 2 1.5270920995321056e+00 4.4856872146240283e+00 -4.9175976599940645e+00 0 0 0
3034 1 2.4839695068948249e+00 5.7016918843053954e+00 -5.9087371492956384e+00 0 0 0
2973 1 4.5576880062931646e-02 6.4027537602130629e+00 -3.7950125169369624e+00 0 0 0
3003 1 4.6613167860201266e+00 4.4486704607551095e+00 -3.8576042203310497e+00 0 0 0
3152 1 8.8161076930104798e-01 6.9196181034873820e+00 1.1776161616257470e+00 0 0 0
3079 1 5.5370504269094789e-01 4.9988973526905482e+00 -1.1997772389915058e+00 0 0 0
2919 1 1.0217644310085066e+00 4.9690918004126843e+00 -5.5979978003146638e+00 0 0 0
41 2 2.5170525575092233e+00 5.8568546571234155e+00 -3.0043885180767345e+00 0 0 0
43 2 1.1137165737033408e+00 7.3894148418252579e+00 -4.7368616420330500e+00 0 0 0
2975 1 1.8204223859482129e+00 7.8560813328577757e+00 -4.2170010313917068e+00 0 0 0
2976 1 3.3296090172211064e+00 6.7170755171764274e+00 -3.9361594456398326e+00 0 0 0
3004 1 2.1234742434692988e+00 5.2680950090773981e+00 -3.7973897489861508e+00 0 0 0
3011 1 7.4068462246721223e-01 8.1751855016308355e+00 -5.2801899818292926e+00 0 0 0
2959 1 1.7551666992281256e+00 6.3155972634074775e+00 -2.5229333400004998e+00 0 0 0
3013 1 1.8396580756711813e+00 7.6344168429959867e+00 -1.4903079900171514e+00 0 0 0
3010 1 3.6459013507402198e+00 8.0021099504718638e+00 -7.0678912031683083e-01 0 0 0
42 2 2.0798455336415174e+00 5.9805244112295437e+00 6.5330171356375644e-01 0 0 0
44 2 1.0054972397361763e+00 7.0524400657299511e+00 -1.5650514022872564e+00 0 0 0
2972 1 2.9978825240068439e+00 6.0539779527844066e+00 1.0006901019260361e+00 0 0 0
2996 1 3.3204356961450880e+00 5.0093782475791135e+00 -1.8708158195489828e+00 0 0 0
3064 1 1.9136005959055169e+00 6.6306806648770351e+00 -9.3154568673895710e-02 0 0 0
55 2 3.8711941517483233e+00 7.4913265926135537e+00 -1.5184168552212123e+00 0 0 0
45 2 4.0168082273852415e+00 7.3410287602696123e+00 -4.3828165320743508e+00 0 0 0
25 2 4.1256479303472542e+00 4.6097532979743603e+00 -1.6018016476419907e+00 0 0 0
4311 1 3.7319320156528235e+00 7.4345910468968146e+00 -5.2772678697325386e+00 0 0 1
3038 1 4.7829114937916861e-01 7.7549756955593079e+00 -2.0976265299692090e+00 0 0 0
726 2 2.7868396238627002e+00 8.6117630885403109e+00 -6.3018902702344004e+00 0 0 1
3253 1 4.9128507334034550e+00 6.7993163160918915e+00 1.1746728986437205e+00 0 0 0
4347 1 7.7523559561366762e+00 5.5720019505503462e+00 -6.3231059085935115e+00 0 0 1
22 2 6.8637296874868179e+00 4.5305187856795159e+00 -4.5683064632980059e+00 0 0 0
114 2 6.8123058253709434e+00 4.8875505865940898e+00 1.1601779078127317e+00 0 0 0
4493 1 1.4400804945119432e+00 -4.6184910964115866e-02 -1.0693609550411312e+00 0 1 0
3083 1 7.1090077092358737e+00 7.1163826245226263e+00 7.2598770984811090e-01 0 0 0
3051 1 4.3633461437292089e+00 6.7662908989884816e+00 -1.0524047309029738e+00 0 0 0
2950 1 4.1669373753564392e+00 4.9810422956490834e+00 -9.1555757039637697e-02 0 0 0
2926 1 4.6250234647803117e+00 5.1062552664184393e+00 -5.3267353044755685e+00 0 0 0
3272 1 7.6336145897764194e+00 5.2498375088237861e+00 5.8341517943702392e-01 0 0 0
72 2 5.5140356538112405e+00 5.9883336424104270e+00 -6.5040110881466529e+00 0 0 0
142 2 7.8273291486203913e+00 7.1993378541289443e+00 1.4696113756622804e+00 0 0 0
2946 1 5.1934927181309378e+00 4.9611802739431408e+00 1.1346036552406149e+00 0 0 0
2986 1 5.1803726236798777e+00 6.6255848331137805e+00 -3.3537016288825203e+00 0 0 0
52 2 5.5866067698464192e+00 5.8008950353299058e+00 -2.9813861883857138e+00 0 0 0
53 2 7.1310156657498700e+00 7.1310708535915701e+00 -4.8226882580820707e+00 0 0 0
2981 1 6.2508767671662611e+00 5.2434971626051006e+00 -3.7584879026913742e+00 0 0 0
2997 1 4.8498423459064952e+00 5.2396145991028833e+00 -2.2154004312795577e+00 0 0 0
3005 1 6.7327730926510325e+00 8.0547059459896193e+00 -4.8044276140275910e+00 0 0 0
3008 1 6.3069518636078081e+00 6.7240647455647737e+00 -5.2113881379426266e+00 0 0 0
2974 1 4.8059098353982161e+00 8.1763883772382169e+00 -2.3597571256900887e+00 0 0 0
3006 1 6.2239318846916305e+00 5.9209526310181095e+00 -1.1096987824303381e+00 0 0 0
51 2 4.7031370406508017e+00 5.4930060925011164e+00 5.3389374693390756e-01 0 0 0
56 2 6.7283650303428075e+00 6.7286016671720876e+00 -8.9563838802100193e-01 0 0 0
3056 1 7.4553513938187779e+00 6.6570563461116361e+00 -1.6857337076387111e+00 0 0 0
3067 1 8.1598956322262470e+00 8.3279455947291474e+00 8.8061805692506923e-01 0 0 0
57 2 8.3896157767183226e+00 6.0604204218781144e+00 -2.8188617471551942e+00 0 0 0
3016 1 8.1157124377159739e+00 6.2819565809401388e+00 -3.7675385712460114e+00 0 0 0
2985 1 6.2136914094342206e+00 8.0963191413534261e+00 -5.3287699405259659e-01 0 0 0
59 2 5.7364149577381731e+00 8.5820549559933159e+00 -2.7878085340490366e+00 0 0 0
94 2 8.6996497995519757e+00 5.4832962670072796e+00 -6.5119345701323255e+00 0 0 0
3078 1 8.6478855745751524e+00 8.1126319537102969e+00 -6.0680479897487327e+00 0 0 0
3063 1 5.4854419180624285e+00 8.5605048567790512e+00 8.1195042709050735e-01 0 0 0
3087 1 9.0009927656107180e+00 4.3634156371208448e+00 1.4625571128473513e+00 0 0 0
63 2 1.0441354723325510e+01 4.4643898387120409e+00 -4.9133253916378887e+00 0 0 0
2960 1 9.4898010938991053e+00 4.6192588076050587e+00 -5.0931213918776406e+00 0 0 0
3027 1 8.8325117052685762e+00 5.2067224204652982e+00 -2.7828365363974865e+00 0 0 0
3009 1 9.2225808292075069e+00 6.1798698720120919e+00 -4.6750959299065897e-01 0 0 0
58 2 9.1504981474370517e+00 5.3221165031517090e+00 -5.0053737778842589e-02 0 0 0
5977 1 1.2904190487187918e+01 4.8494266665008912e+00 -4.2327649384892378e+00 0 0 0
3031 1 1.2664358081333388e+01 6.8581504930539436e+00 -5.7418408975176307e+00 0 0 0
2962 1 1.1118222295662926e+01 5.4537928680467358e+00 -3.8297839756179290e+00 0 0 0
66 2 1.1562523640048651e+01 5.9814747577847003e+00 -3.0153397204536425e+00 0 0 0
68 2 9.9875193034017737e+00 7.2651923409915140e+00 -5.0777236217262640e+00 0 0 0
2999 1 9.6835735552434112e+00 6.3393010416993336e+00 -5.2232657199847878e+00 0 0 0
3007 1 9.4843002882373124e+00 7.6449866977353320e+00 -4.3429244975611923e+00 0 0 0
3015 1 1.1800189080787925e+01 8.4356626711042555e+00 -2.4988412479987296e+00 0 0 0
3025 1 1.0938436402954842e+01 6.6535801336674236e+00 -2.7700034475218218e+00 0 0 0
3075 1 1.2128214692719370e+01 7.2388174552066520e+00 -4.3864316174208531e+00 0 0 0
4210 1 1.0980673777252475e+01 4.9353941930205343e+00 -5.7596826983722824e+00 0 0 1
2964 1 9.3909846791271558e+00 4.7515954601773807e+00 -8.7086666803202917e-01 0 0 0
3017 1 1.0862078435284076e+01 5.7882632878642628e+00 1.8130374956847106e-01 0 0 0
67 2 1.1732837017537413e+01 5.9992445216276256e+00 -2.7776880128686532e-01 0 0 0
69 2 9.6982613865634448e+00 7.3160426204464040e+00 -1.3816117478245387e+00 0 0 0
2991 1 9.1801734347789363e+00 8.0226415576424159e+00 -8.3329761850750650e-01 0 0 0
2993 1 1.1932517692915054e+01 8.0171804278101924e+00 -5.2999784761799873e-01 0 0 0
3021 1 9.1752708179762887e+00 7.1011929285219040e+00 -2.2357057667137017e+00 0 0 0
3026 1 1.2025979129216418e+01 6.4260628133587456e+00 5.8004483827985887e-01 0 0 0
3030 1 1.1030992267422636e+01 4.6826101087359788e+00 -2.2501025396831587e+00 0 0 0
3193 1 1.0716736246901114e+01 7.8823406199116874e+00 1.0721007859525482e+00 0 0 0
5899 1 1.3076043110993492e+01 6.8307080285739641e+00 -1.8540676128856610e+00 0 0 0
92 2 1.1286532304108608e+01 8.6130487584257178e+00 -3.3596456194876723e-02 0 0 0
4306 1 1.0997520235988526e+01 8.0766328382568275e+00 -5.8285381438932102e+00 0 0 1
35 2 1.2986096321920456e+01 7.8046324877517170e+00 -1.9169693840886479e+00 0 0 0
12 2 1.3003138631268259e+01 7.1463194625157502e+00 -4.8835723786450327e+00 0 0 0
7433 1 8.0761492976438720e-01 7.5266726671728179e-02 8.7036497600184148e-01 1 1 0
1628 2 1.3027731058718542e+01 7.2907298992526979e+00 1.5679923591589553e+00 0 0 0
3065 1 1.2931914165916876e+01 5.0105016538485421e+00 -1.0843217214427652e+00 0 0 0
3020 1 1.0283834017522349e+01 8.6363356729418292e+00 -3.2278599435092223e+00 0 0 0
3060 1 9.6460061799383485e+00 6.8669747771418184e+00 1.4948705184177413e+00 0 0 0
706 2 1.1457705624932226e+01 8.6927798766880091e+00 -6.4964417724460581e+00 0 0 1
40 2 1.6791250564833382e-02 1.2068569792502799e+01 4.7937118926189015e-04 0 0 0
3049 1 3.7800307599547989e-01 9.0200011621615754e+00 -2.9150963636129834e-01 0 0 0
2989 1 2.4842309734634602e+00 9.7574492228071925e+00 1.7957259724963137e-01 0 0 0
85 2 2.7625549267192167e+00 8.8862625740324734e+00 2.5109659415713015e-01 0 0 0
1500 2 -2.7082956205419423e-02 1.1741587097194804e+01 -2.8994513412794052e+00 1 0 0
2924 1 6.9805019216998831e-01 1.1073162483938152e+01 -3.1501496002616243e+00 0 0 0
751 2 1.2873719272564561e+00 1.2999523553865936e+01 -4.7293909804413312e+00 0 0 0
3000 1 3.4917661125104464e+00 1.1777139822758436e+01 9.2625065971255438e-01 0 0 0
5855 1 9.4480920194354878e-01 1.2241817555060063e+01 3.6105875519079156e-01 1 0 0
75 2 4.3546966931658320e+00 1.2967392651252306e+01 -1.2047075494003039e+00 0 0 0
3018 1 3.4370900339306925e+00 8.7874781257971666e+00 9.8574108887641643e-01 0 0 0
3046 1 1.4220393999201388e+00 9.3833859402916424e+00 -2.0373863424655703e+00 0 0 0
3047 1 1.9189967435684816e+00 1.2449306457596746e+01 -4.1537887863620906e+00 0 0 0
2979 1 1.7185510948731240e+00 9.3208744124428655e+00 -3.4783374889317114e+00 0 0 0
47 2 2.2391486255862358e+00 9.0769949566936106e+00 -2.6465675433220106e+00 0 0 0
76 2 9.2516889174354189e-01 1.0255478927043043e+01 -4.5599034118535053e+00 0 0 0
78 2 2.7926558437689062e+00 1.1849563625268495e+01 -3.0704304061759169e+00 0 0 0
4334 1 5.3026981416360730e+00 8.2397505475074411e+00 -5.5435699664465501e+00 0 0 1
3043 1 1.5096890875206297e+00 1.0284105198031218e+01 -5.3366365665777522e+00 0 0 0
3044 1 3.0644479671604339e+00 1.0744847288633538e+01 -4.1852726793123161e+00 0 0 0
3045 1 2.3009697066256409e+00 1.1413217342991102e+01 -2.3441007123139546e+00 0 0 0
3050 1 3.2691885821827067e+00 1.2597548738240929e+01 -2.5274628181411618e+00 0 0 0
3054 1 3.1878981173196750e+00 9.2322898094972299e+00 -5.5793192164497789e+00 0 0 0
4558 1 8.4773778074551709e-01 1.2535641485181262e+01 -5.4722926970716088e+00 0 0 0
80 2 3.6949922519721636e+00 1.0002364746517429e+01 -4.5366057682313112e+00 0 0 0
5982 1 6.4883869109224512e-01 1.0552154752456477e+01 -3.2696056815574082e-01 1 0 0
2994 1 3.4874282727141726e+00 9.9520083307977707e+00 -1.9118291967584584e+00 0 0 0
3269 1 1.0865031928151714e+01 9.1205571640034773e+00 -7.7620657354021017e-01 0 0 0
77 2 6.9440306367542270e-01 9.7157084778451903e+00 -9.1014269109626511e-01 0 0 0
79 2 2.5924980979427446e+00 1.1549108432692123e+01 6.3624088961233038e-01 0 0 0
4232 1 3.1172435541159578e+00 1.1965238604657454e+01 -6.4435044273280662e+00 0 0 1
81 2 4.3552008136291569e+00 1.0322505221919682e+01 -1.6328198185102867e+00 0 0 0
2929 1 1.2982826394256831e+01 1.0649358847763116e+01 -4.5113811252369196e+00 0 0 0
3072 1 2.0892374509913472e+00 1.1799463709307997e+01 1.4685464986416825e+00 0 0 0
4373 1 4.5367732654022301e+00 1.0489289951122819e+01 -4.7557078207151360e+00 0 0 1
2952 1 7.6240948698786601e+00 1.3042071170997454e+01 -5.5048066828962714e+00 0 0 0
50 2 3.5290198186839112e+00 2.1239520132049425e-03 5.2468063825848521e-01 0 0 0
83 2 8.7767985155060551e+00 8.9015700333586878e+00 2.7457803153697036e-01 0 0 0
71 2 8.7051536827143448e+00 8.8291174708410427e+00 -3.4211873175673704e+00 0 0 0
738 2 5.4995183983314115e+00 8.7572136605194029e+00 -6.3498904050819149e+00 0 0 1
3121 1 4.6941738607528913e+00 1.0346806192610327e+01 1.0731090485848815e+00 0 0 0
3055 1 6.5109310461414855e+00 1.2268331395610122e+01 8.3031777009392638e-01 0 0 0
2923 1 5.3347552409098240e+00 1.1835264720300547e+01 -4.0219354195113688e-01 0 0 0
731 2 8.4341812467741963e+00 1.1767877841444815e+01 -6.3551573657986351e+00 0 0 1
3032 1 4.6941995229703890e+00 1.2673665383846648e+01 -4.5214004810058412e+00 0 0 0
723 2 5.1590428218082929e+00 1.1659037013217377e+01 -6.4748985125999043e+00 0 0 1
3029 1 8.1824058679688410e+00 9.1857038175462815e+00 -4.1338617060326195e+00 0 0 0
5722 1 5.9406100364065964e+00 1.2055029435077426e+01 -6.1037468676213864e+00 0 0 1
86 2 6.9840859474442691e+00 1.0171929507986148e+01 -4.9514400111316208e+00 0 0 0
88 2 5.5424209070122954e+00 1.1671330757068441e+01 -3.4556718147440302e+00 0 0 0
2933 1 4.9355989987515940e+00 1.1254264989264090e+01 -2.8533262580174306e+00 0 0 0
3081 1 7.9029613618312080e+00 1.1196618096780677e+01 -5.8525142243935901e+00 0 0 0
3012 1 5.3429477459396377e+00 9.2764983983431630e+00 -3.2491491131654380e+00 0 0 0
3061 1 6.3386431117642283e+00 9.9282680536467307e+00 -5.7031739119085163e+00 0 0 0
3068 1 6.1088777460285328e+00 1.2313394705683002e+01 -2.9708554131912113e+00 0 0 0
3070 1 6.7371821269470740e+00 1.0460747671678789e+01 -4.0941494999010013e+00 0 0 0
3058 1 6.5626551228847312e+00 9.8329927265232850e+00 -1.9450308151427587e+00 0 0 0
3062 1 8.0349844115659455e+00 1.1308847131875947e+01 -2.7094185232182499e+00 0 0 0
60 2 5.8198219521527408e+00 8.8942992806846934e+00 -2.9942146792564017e-02 0 0 0
3022 1 8.0833061711486565e+00 9.3790625875406501e+00 -2.1779995242181727e-01 0 0 0
3066 1 4.8551331334688799e+00 9.7048015926870672e+00 -1.0560320168418507e+00 0 0 0
87 2 7.3314057463443447e+00 1.0424001780025677e+01 -1.7279824801333543e+00 0 0 0
89 2 6.1228533050767560e+00 1.1519325047342472e+01 1.6514911212065808e-01 0 0 0
2998 1 6.7764764691074442e+00 1.1018807237770286e+01 -1.0982851304271053e+00 0 0 0
4529 1 7.7456216925800616e+00 1.2693435910098145e+01 -1.1871195694340742e+00 0 0 0
84 2 8.6577033135880566e+00 1.2101372703407483e+01 -2.2251978777369086e-01 0 0 0
10 2 8.6855028073636600e+00 1.1797767401954379e+01 -3.3505640756938044e+00 0 0 0
3085 1 7.7809668467031177e+00 1.2590958441299847e+01 -4.1140936014590022e+00 0 0 0
3082 1 8.8107039105070299e+00 1.1165560400650634e+01 -2.9079812321492948e-01 0 0 0
3048 1 8.2869061855460568e+00 9.1965068468787461e+00 -2.5930370834125132e+00 0 0 0
4381 1 9.3734161949616557e-01 1.2969293648631327e+01 -1.8747239898884258e+00 0 0 0
54 2 7.0398620786583486e+00 1.3080171525029826e+01 -1.8562777137099067e+00 0 0 0
3217 1 1.0263825832443411e+01 9.7428354739078280e+00 1.2428402322834025e+00 0 0 0
1568 2 1.3014643362883632e+01 9.8974635152022330e+00 1.6542296809493138e+00 0 0 0
2965 1 9.0606471926955550e+00 1.0960932523815094e+01 -3.8649471612412460e+00 0 0 0
62 2 1.3018275823021861e+01 9.7656460217890473e+00 -4.8317693682805718e+00 0 0 0
3149 1 1.2791521285196547e+01 1.0471128980328055e+01 9.4368523941578797e-01 0 0 0
3040 1 1.0898241090949053e+01 1.0945905124644959e+01 -4.5849853824934499e+00 0 0 0
4513 1 1.2471522149219007e+01 1.2814700309113039e+01 -5.6277813711572975e+00 0 0 0
3023 1 1.1114947617190051e+01 9.5686701323989976e+00 -6.3922336886436568e+00 0 0 0
2948 1 1.0557292898382558e+01 1.0347333102260398e+01 -2.2866808310139914e+00 0 0 0
3256 1 1.1314769445588652e+01 1.2778876798535750e+01 -5.4921599453194858e-02 0 0 0
65 2 1.1551258696277998e+01 1.1857378714762305e+01 -1.3647110247837269e-02 0 0 0
91 2 9.9690921766646472e+00 1.0350364042428168e+01 -1.4740181952416282e+00 0 0 0
3057 1 1.1102189661250286e+01 1.2395476021560004e+01 -2.6415515371178833e+00 0 0 0
4433 1 9.6158997677182061e+00 1.2768375058856019e+01 -5.6341054354127662e+00 0 0 0
90 2 1.0230263955854053e+01 1.0374404010784849e+01 -4.9604351430054043e+00 0 0 0
3267 1 8.8605082172328480e+00 1.2361112939155090e+01 7.5388711272266029e-01 0 0 0
70 2 1.1287458392236374e+01 8.7994958883765264e+00 -3.2547644293462819e+00 0 0 0
5984 1 1.2183726980184693e+01 9.3627931055281373e+00 -4.3261335678318877e+00 0 0 0
3024 1 1.0055971079919406e+01 1.0864008737158631e+01 -5.7294388423922804e+00 0 0 0
2982 1 1.1771281963250656e+01 1.2724373825171773e+01 -3.8679056296289422e+00 0 0 0
2980 1 1.2453794319804171e+01 1.0744880206770510e+01 -1.5986258436092964e+00 0 0 0
2978 1 1.0406328165923828e+01 1.1213235769697198e+01 -1.1538941537847256e+00 0 0 0
2988 1 1.1042148516931736e+01 1.1377148254011365e+01 6.6441645272473959e-01 0 0 0
14 2 7.1766316254018756e+00 1.3185921863726069e+01 -4.6823983670376528e+00 0 0 0
2945 1 -2.2967627618768915e-02 1.0507932205312089e+01 -4.7566173474412698e+00 0 0 0
96 2 4.0322969537342885e+00 2.3148858591414481e+00 4.5529511141235641e+00 0 0 0
3098 1 3.5525064112963030e+00 1.5789389958967277e+00 4.2698936896982609e+00 0 0 0
3101 1 9.1356786839253690e-01 3.0464319992487074e+00 8.2877930583558008e+00 0 0 0
3258 1 3.6084375145085343e+00 3.1424132175614443e+00 4.6633500309957476e+00 0 0 0
104 2 3.0431874834011086e-01 3.1041498261785079e+00 3.7567966886207333e+00 0 0 0
852 2 2.7979032371127484e+00 1.1060879225996307e+00 2.6906546978411328e+00 0 1 0
95 2 1.5070581114747277e+00 3.0301119936081138e+00 6.0889306749834802e+00 0 0 0
3105 1 1.4302509221375865e+00 3.0604747383218518e+00 5.0516877453734512e+00 0 0 0
3092 1 2.8673082510067833e+00 2.4831936510741226e+00 6.5601144734092998e+00 0 0 0
105 2 6.1687832118389740e-01 3.9461476469089032e+00 8.4872217649288988e+00 0 0 0
184 2 3.7076885401425197e+00 2.5461086799591937e+00 7.1052318582792271e+00 0 0 0
3192 1 7.6092328827809153e-01 2.3925387224204364e+00 6.2234341485522577e+00 0 0 0
98 2 1.3854845916036318e+00 1.5110973694086418e+00 8.1319382576979891e+00 0 0 0
3104 1 3.5817231787520978e+00 2.7331417703537522e+00 8.1230894105266618e+00 0 0 0
4726 1 2.3673231039670779e+00 8.3378714608782067e-01 5.0183163506552759e+00 0 1 0
3155 1 5.9517094244177926e-01 2.1806933882006558e+00 3.6199657290406382e+00 0 0 0
157 2 2.4373407527983284e+00 7.4742424130866680e-01 6.0207540982044030e+00 0 0 0
6382 1 2.3621800835283313e+00 1.3536278040791465e+00 8.2673265317632953e+00 1 0 0
3191 1 2.1762883413574530e+00 3.6013720180695521e+00 2.7865736968632699e+00 0 0 0
3096 1 1.1690408459514818e+00 7.1660898961470432e-01 7.5331952996369562e+00 0 0 0
6080 1 2.0064530409511425e+00 1.7090424500854302e+00 2.2866474917843007e+00 1 0 0
4688 1 2.3271785376740324e+00 3.0698666159502541e-01 3.0404314403768886e+00 0 1 0
115 2 3.7932830596869920e+00 3.4796824877620227e+00 9.6197446813951615e+00 0 0 0
3233 1 3.8035366284257042e+00 3.9378746655663712e+00 2.3766046056575387e+00 0 0 0
116 2 2.8247783798913271e+00 3.8015407757860999e+00 2.1467940799723007e+00 0 0 0
3073 1 6.8344292602440699e+00 1.0257445571337191e+01 1.6641680581682152e+00 0 0 0
180 2 1.0448295413484681e+00 1.3185776136087911e+01 5.2992848455317390e+00 0 0 0
3308 1 7.9298816370996841e+00 7.6052065776348483e+00 9.6230726946870213e+00 0 0 0
3097 1 3.6228719799856846e-01 1.0208435929712634e+00 9.2553425218760168e+00 0 0 0
249 2 3.3518858544016008e+00 5.6219911151979962e-01 9.0236194709186126e+00 0 0 0
3159 1 4.6048338382240228e+00 1.4637401082380277e+00 6.8093150400946474e+00 0 0 0
3120 1 6.9491290659451126e+00 4.1903697837233500e-01 8.0276424221302207e+00 0 0 0
3178 1 5.1918840110479110e+00 3.4741524363595793e+00 6.6317559067971690e+00 0 0 0
3091 1 4.5890713207750506e+00 2.5940311194878753e+00 3.3155505881483638e+00 0 0 0
101 2 5.2050834714787220e+00 6.7347818995884567e-01 6.4948691248123627e+00 0 0 0
109 2 6.7393963459468154e+00 2.1713722622520550e+00 4.4735721267628836e+00 0 0 0
3108 1 6.5047554739395057e+00 3.1549424250060443e+00 4.2603545058479781e+00 0 0 0
4598 1 5.9514051860372215e+00 1.1679534751912390e+00 3.8051680630995488e+00 0 1 0
99 2 4.9783833197600957e+00 2.9470391895484100e+00 2.4269723899563349e+00 0 0 0
108 2 5.4067221201370490e+00 4.2665584552128886e+00 6.0931353095413332e+00 0 0 0
112 2 5.7769434977516827e+00 1.4174412943262644e+00 8.8622467099660938e+00 0 0 0
3162 1 8.2035497303783611e+00 1.2988565134771071e+00 6.9753367280259688e+00 0 0 0
3119 1 7.1575538750328747e+00 2.1678521270440041e+00 5.3346920952782799e+00 0 0 0
120 2 7.8290165471478383e+00 2.1439464142269995e+00 6.7598486449710240e+00 0 0 0
3170 1 7.1778547945481046e+00 2.1107898169907786e+00 7.4245945579918686e+00 0 0 0
3207 1 7.2521488508162175e+00 2.5841059347133064e+00 2.5310108081975997e+00 0 0 0
3374 1 6.4316811273092949e+00 3.3129638660398073e+00 9.5330411475412298e+00 0 0 0
3164 1 5.0084959615182232e+00 9.4272984457928166e-01 9.0329271797583299e+00 0 0 0
3093 1 5.1254164705276413e+00 2.2923885138134752e+00 1.8378219405192926e+00 0 0 0
110 2 7.9929503433799436e+00 2.0326421249091720e+00 2.1574692958982435e+00 0 0 0
3459 1 6.7156269336001122e+00 3.8699098482939176e+00 8.0853277013511615e+00 0 0 0
205 2 6.1371429293282214e+00 3.9624979019787077e+00 8.8920000147117868e+00 0 0 0
3109 1 5.4822942674244866e+00 2.1181060360706301e+00 8.3027277498534993e+00 0 0 0
3107 1 5.6906923024524421e+00 1.1352911636175098e+00 5.9082092767086500e+00 0 0 0
3118 1 9.0682426688366569e+00 3.3902667631190671e+00 5.5095553986396535e+00 0 0 0
166 2 5.5618627500392428e+00 4.9726537528669768e-01 3.1201462648374925e+00 0 0 0
2928 1 7.9267723499412419e+00 1.0843334108463851e+00 2.3668855376736158e+00 0 0 0
3235 1 4.7076355919790753e+00 2.6863532671056456e-02 3.5174920394917120e+00 0 0 0
138 2 9.6350143235088161e+00 3.4349707039793842e-01 6.7243447020785325e+00 0 0 0
3130 1 8.6818871549626433e+00 3.0877695257297635e+00 4.1776376131732782e+00 0 0 0
192 2 9.1836928940057039e+00 1.5751962080670949e+00 9.6183800114131763e+00 0 0 0
3135 1 9.0473968934856472e+00 1.1938660497299787e+00 4.6958460955821870e+00 0 0 0
100 2 9.0277565548652881e+00 5.8873287168186528e-01 3.9767249988010036e+00 0 0 0
6055 1 1.1844602677654613e+01 1.6912607323717275e+00 1.9931146917027931e+00 0 0 0
3395 1 9.5809759791665918e+00 1.8851086136576523e-01 9.2551071733567785e+00 0 0 0
113 2 9.2851642513188395e+00 2.7335626635408561e+00 4.7808053103300576e+00 0 0 0
3211 1 1.2103321590793088e+01 3.4917514504655291e+00 2.4759125894963070e+00 0 0 0
4710 1 1.0572642239246134e+01 2.3750341188829527e-01 6.5259669550885153e+00 0 1 0
3252 1 9.5616094854718874e+00 2.3670962782196900e+00 9.0265824205252851e+00 0 0 0
4739 1 1.1803020847764015e+01 9.3806170065837791e-01 9.4818385941963648e+00 0 1 0
3127 1 1.2324562591201392e+01 4.4577380183466320e-01 4.4149872706229871e+00 0 0 0