begin
comment AIRSS data using PBE DFT
lattice		19.849842	0.000000	0.000000
lattice		0.000000	19.653309	0.098267
lattice		0.000000	0.098267	19.653309
atom	1.240615	1.234473	1.234473	H	0.000000	0.000000	1.51414e-06 1.10828e-06 1.10808e-06
atom	13.646767	1.295890	13.517792	H	0.000000	0.000000	8.43801e-07 -9.72345e-08 9.7429e-08
atom	18.609227	1.295890	13.517792	H	0.000000	0.000000	8.4419e-07 -9.85958e-08 9.70401e-08
atom	3.721845	6.209217	13.542358	H	0.000000	0.000000	8.46329e-07 -9.82069e-08 9.80124e-08
atom	8.684306	6.209217	13.542358	H	0.000000	0.000000	8.42245e-07 -9.7429e-08 9.56788e-08
atom	13.646767	6.209217	13.542358	H	0.000000	0.000000	8.46329e-07 -1.01124e-07 9.87903e-08
atom	18.609227	6.209217	13.542358	H	0.000000	0.000000	8.41662e-07 -9.76235e-08 9.58732e-08
atom	3.721845	11.122545	13.566925	H	0.000000	0.000000	8.47302e-07 -1.00735e-07 1.01707e-07
atom	8.684306	11.122545	13.566925	H	0.000000	0.000000	8.42829e-07 -9.82069e-08 9.84013e-08
atom	13.646767	11.122545	13.566925	H	0.000000	0.000000	8.43996e-07 -9.82069e-08 9.97626e-08
atom	18.609227	11.122545	13.566925	H	0.000000	0.000000	8.41273e-07 -9.64566e-08 9.62622e-08
atom	3.721845	16.035872	13.591492	H	0.000000	0.000000	8.45551e-07 -9.7429e-08 9.84013e-08
atom	8.684306	16.035872	13.591492	H	0.000000	0.000000	8.41468e-07 -9.64566e-08 9.66511e-08
atom	13.646767	16.035872	13.591492	H	0.000000	0.000000	8.45746e-07 -9.89847e-08 9.87903e-08
atom	8.684306	1.295890	13.517792	H	0.000000	0.000000	8.42634e-07 -9.64566e-08 9.66511e-08
atom	18.609227	16.035872	13.591492	H	0.000000	0.000000	8.42245e-07 -9.56788e-08 9.70401e-08
atom	8.684306	1.320457	18.431119	H	0.000000	0.000000	8.44968e-07 -9.76235e-08 9.7429e-08
atom	13.646767	1.320457	18.431119	H	0.000000	0.000000	8.4244e-07 -9.70401e-08 9.68456e-08
atom	18.609227	1.320457	18.431119	H	0.000000	0.000000	8.43218e-07 -9.70401e-08 9.66511e-08
atom	3.721845	6.233784	18.455686	H	0.000000	0.000000	8.44385e-07 -9.91792e-08 9.82069e-08
atom	8.684306	6.233784	18.455686	H	0.000000	0.000000	8.43218e-07 -9.76235e-08 9.78179e-08
atom	13.646767	6.233784	18.455686	H	0.000000	0.000000	8.47107e-07 -1.01902e-07 1.01902e-07
atom	18.609227	6.233784	18.455686	H	0.000000	0.000000	8.45162e-07 -9.87903e-08 1.01513e-07
atom	3.721845	11.147111	18.480252	H	0.000000	0.000000	8.43023e-07 -9.82069e-08 9.78179e-08
atom	8.684306	11.147111	18.480252	H	0.000000	0.000000	8.43607e-07 -9.68456e-08 9.60677e-08
atom	13.646767	11.147111	18.480252	H	0.000000	0.000000	8.40495e-07 -9.43175e-08 9.58732e-08
atom	18.609227	11.147111	18.480252	H	0.000000	0.000000	8.46135e-07 -9.85958e-08 9.95681e-08
atom	3.721845	16.060439	18.504819	H	0.000000	0.000000	8.44385e-07 -1.00346e-07 1.00346e-07
atom	8.684306	16.060439	18.504819	H	0.000000	0.000000	8.44968e-07 -9.85958e-08 9.97626e-08
atom	3.721845	1.320457	18.431119	H	0.000000	0.000000	8.43801e-07 -9.72345e-08 9.68456e-08
atom	13.646767	16.060439	18.504819	H	0.000000	0.000000	8.43801e-07 -1.00346e-07 9.97626e-08
atom	3.721845	1.295890	13.517792	H	0.000000	0.000000	8.43412e-07 -9.80124e-08 9.72345e-08
atom	13.646767	16.011305	8.678164	H	0.000000	0.000000	8.46718e-07 -1.00346e-07 1.00346e-07
atom	13.646767	1.246757	3.691137	H	0.000000	0.000000	8.43218e-07 -9.89847e-08 9.89847e-08
atom	18.609227	1.246757	3.691137	H	0.000000	0.000000	8.42051e-07 -9.60677e-08 9.80124e-08
atom	3.721845	6.160084	3.715704	H	0.000000	0.000000	8.4419e-07 -9.78179e-08 9.76235e-08
atom	8.684306	6.160084	3.715704	H	0.000000	0.000000	8.44385e-07 -9.93737e-08 9.85958e-08
atom	13.646767	6.160084	3.715704	H	0.000000	0.000000	8.46524e-07 -9.89847e-08 9.85958e-08
atom	18.609227	6.160084	3.715704	H	0.000000	0.000000	8.4244e-07 -9.80124e-08 9.66511e-08
atom	3.721845	11.073411	3.740270	H	0.000000	0.000000	8.43607e-07 -9.85958e-08 9.82069e-08
atom	8.684306	11.073411	3.740270	H	0.000000	0.000000	8.44385e-07 -9.85958e-08 9.84013e-08
atom	13.646767	11.073411	3.740270	H	0.000000	0.000000	8.4419e-07 -9.82069e-08 9.84013e-08
atom	18.609227	11.073411	3.740270	H	0.000000	0.000000	8.44579e-07 -1.00152e-07 9.84013e-08
atom	3.721845	15.986739	3.764837	H	0.000000	0.000000	8.44385e-07 -9.78179e-08 9.72345e-08
atom	8.684306	15.986739	3.764837	H	0.000000	0.000000	8.43607e-07 -9.62622e-08 9.66511e-08
atom	13.646767	15.986739	3.764837	H	0.000000	0.000000	8.43607e-07 -9.89847e-08 9.78179e-08
atom	18.609227	16.011305	8.678164	H	0.000000	0.000000	8.41079e-07 -9.70401e-08 9.72345e-08
atom	18.609227	15.986739	3.764837	H	0.000000	0.000000	8.43801e-07 -9.82069e-08 9.76235e-08
atom	8.684306	1.271323	8.604464	H	0.000000	0.000000	8.43801e-07 -9.58732e-08 9.66511e-08
atom	13.646767	1.271323	8.604464	H	0.000000	0.000000	8.43412e-07 -9.66511e-08 9.70401e-08
atom	18.609227	1.271323	8.604464	H	0.000000	0.000000	8.42829e-07 -9.52898e-08 9.66511e-08
atom	3.721845	6.184651	8.629031	H	0.000000	0.000000	8.4594e-07 -1.01707e-07 1.00929e-07
atom	8.684306	6.184651	8.629031	H	0.000000	0.000000	8.43801e-07 -9.85958e-08 9.89847e-08
atom	13.646767	6.184651	8.629031	H	0.000000	0.000000	8.44774e-07 -1.01513e-07 9.89847e-08
atom	18.609227	6.184651	8.629031	H	0.000000	0.000000	8.44385e-07 -9.97626e-08 9.84013e-08
atom	3.721845	11.097978	8.653598	H	0.000000	0.000000	8.43801e-07 -9.68456e-08 9.50954e-08
atom	8.684306	11.097978	8.653598	H	0.000000	0.000000	8.39523e-07 -9.31507e-08 9.27617e-08
atom	13.646767	11.097978	8.653598	H	0.000000	0.000000	8.43023e-07 -9.64566e-08 9.50954e-08
atom	18.609227	11.097978	8.653598	H	0.000000	0.000000	8.41079e-07 -9.52898e-08 9.4512e-08
atom	3.721845	16.011305	8.678164	H	0.000000	0.000000	8.44774e-07 -9.91792e-08 9.84013e-08
atom	8.684306	16.011305	8.678164	H	0.000000	0.000000	8.43023e-07 -9.78179e-08 9.60677e-08
atom	3.721845	1.271323	8.604464	H	0.000000	0.000000	8.43218e-07 -9.56788e-08 9.72345e-08
atom	3.721845	3.691137	1.246757	H	0.000000	0.000000	8.43607e-07 9.80124e-08 -9.82069e-08
atom	8.684306	3.691137	1.246757	H	0.000000	0.000000	8.43996e-07 9.7429e-08 -9.84013e-08
atom	13.646767	3.691137	1.246757	H	0.000000	0.000000	8.45357e-07 9.95681e-08 -9.87903e-08
atom	3.721845	8.653598	11.097978	H	0.000000	0.000000	8.4594e-07 9.66511e-08 -9.80124e-08
atom	8.684306	8.653598	11.097978	H	0.000000	0.000000	8.40884e-07 9.35396e-08 -9.50954e-08
atom	13.646767	8.653598	11.097978	H	0.000000	0.000000	8.46135e-07 9.76235e-08 -9.95681e-08
atom	18.609227	8.653598	11.097978	H	0.000000	0.000000	8.43412e-07 9.62622e-08 -9.78179e-08
atom	3.721845	13.566925	11.122545	H	0.000000	0.000000	8.46524e-07 9.97626e-08 -9.89847e-08
atom	8.684306	13.566925	11.122545	H	0.000000	0.000000	8.41662e-07 9.62622e-08 -9.70401e-08
atom	13.646767	13.566925	11.122545	H	0.000000	0.000000	8.47691e-07 1.02096e-07 -1.00735e-07
atom	18.609227	13.566925	11.122545	H	0.000000	0.000000	8.40301e-07 9.62622e-08 -9.76235e-08
atom	3.721845	18.480252	11.147111	H	0.000000	0.000000	8.44774e-07 9.95681e-08 -9.80124e-08
atom	8.684306	18.480252	11.147111	H	0.000000	0.000000	8.43996e-07 9.76235e-08 -9.68456e-08
atom	13.646767	18.480252	11.147111	H	0.000000	0.000000	8.47107e-07 9.91792e-08 -1.00152e-07
atom	18.609227	18.480252	11.147111	H	0.000000	0.000000	8.43996e-07 9.87903e-08 -9.7429e-08
atom	3.721845	3.764837	15.986739	H	0.000000	0.000000	8.43996e-07 9.68456e-08 -9.76235e-08
atom	18.609227	3.740270	11.073411	H	0.000000	0.000000	8.43996e-07 9.66511e-08 -9.95681e-08
atom	8.684306	3.764837	15.986739	H	0.000000	0.000000	8.42829e-07 9.64566e-08 -9.66511e-08
atom	18.609227	3.764837	15.986739	H	0.000000	0.000000	8.42245e-07 9.49009e-08 -9.64566e-08
atom	3.721845	8.678164	16.011305	H	0.000000	0.000000	8.43996e-07 9.82069e-08 -9.82069e-08
atom	8.684306	8.678164	16.011305	H	0.000000	0.000000	8.42829e-07 9.68456e-08 -9.68456e-08
atom	13.646767	8.678164	16.011305	H	0.000000	0.000000	8.43023e-07 9.76235e-08 -9.80124e-08
atom	18.609227	8.678164	16.011305	H	0.000000	0.000000	8.42245e-07 9.62622e-08 -9.4512e-08
atom	3.721845	13.591492	16.035872	H	0.000000	0.000000	8.43801e-07 9.60677e-08 -9.64566e-08
atom	8.684306	13.591492	16.035872	H	0.000000	0.000000	8.4244e-07 9.54843e-08 -9.58732e-08
atom	13.646767	13.591492	16.035872	H	0.000000	0.000000	8.43218e-07 9.72345e-08 -9.58732e-08
atom	18.609227	13.591492	16.035872	H	0.000000	0.000000	8.43412e-07 9.70401e-08 -9.60677e-08
atom	3.721845	18.504819	16.060439	H	0.000000	0.000000	8.45746e-07 9.99571e-08 -1.01318e-07
atom	8.684306	18.504819	16.060439	H	0.000000	0.000000	8.45162e-07 9.93737e-08 -9.91792e-08
atom	13.646767	18.504819	16.060439	H	0.000000	0.000000	8.42829e-07 9.80124e-08 -9.85958e-08
atom	18.609227	18.504819	16.060439	H	0.000000	0.000000	8.4594e-07 1.00152e-07 -1.00929e-07
atom	13.646767	3.764837	15.986739	H	0.000000	0.000000	8.43607e-07 9.68456e-08 -9.76235e-08
atom	13.646767	3.740270	11.073411	H	0.000000	0.000000	8.44774e-07 9.82069e-08 -9.95681e-08
atom	8.684306	3.740270	11.073411	H	0.000000	0.000000	8.42829e-07 9.76235e-08 -9.78179e-08
atom	3.721845	3.740270	11.073411	H	0.000000	0.000000	8.45357e-07 9.84013e-08 -9.99571e-08
atom	18.609227	3.691137	1.246757	H	0.000000	0.000000	8.43412e-07 9.97626e-08 -9.76235e-08
atom	3.721845	8.604464	1.271323	H	0.000000	0.000000	8.45162e-07 9.91792e-08 -9.84013e-08
atom	8.684306	8.604464	1.271323	H	0.000000	0.000000	8.44385e-07 9.76235e-08 -9.89847e-08
atom	13.646767	8.604464	1.271323	H	0.000000	0.000000	8.43023e-07 9.54843e-08 -9.47064e-08
atom	18.609227	8.604464	1.271323	H	0.000000	0.000000	8.44385e-07 9.72345e-08 -9.76235e-08
atom	3.721845	13.517792	1.295890	H	0.000000	0.000000	8.42245e-07 9.72345e-08 -9.62622e-08
atom	8.684306	13.517792	1.295890	H	0.000000	0.000000	8.4419e-07 9.78179e-08 -9.82069e-08
atom	13.646767	13.517792	1.295890	H	0.000000	0.000000	8.44579e-07 9.91792e-08 -9.72345e-08
atom	18.609227	13.517792	1.295890	H	0.000000	0.000000	8.43607e-07 9.68456e-08 -9.89847e-08
atom	3.721845	18.431119	1.320457	H	0.000000	0.000000	8.42829e-07 9.47064e-08 -9.47064e-08
atom	8.684306	18.431119	1.320457	H	0.000000	0.000000	8.43801e-07 9.54843e-08 -9.68456e-08
atom	13.646767	18.431119	1.320457	H	0.000000	0.000000	8.41273e-07 9.4123e-08 -9.52898e-08
atom	18.609227	18.431119	1.320457	H	0.000000	0.000000	8.43607e-07 9.60677e-08 -9.72345e-08
atom	3.721845	3.715704	6.160084	H	0.000000	0.000000	8.42051e-07 9.47064e-08 -9.4123e-08
atom	8.684306	3.715704	6.160084	H	0.000000	0.000000	8.43412e-07 9.52898e-08 -9.50954e-08
atom	13.646767	3.715704	6.160084	H	0.000000	0.000000	8.43996e-07 9.68456e-08 -9.68456e-08
atom	18.609227	3.715704	6.160084	H	0.000000	0.000000	8.40495e-07 9.50954e-08 -9.4123e-08
atom	3.721845	8.629031	6.184651	H	0.000000	0.000000	8.44385e-07 9.87903e-08 -9.87903e-08
atom	8.684306	8.629031	6.184651	H	0.000000	0.000000	8.42051e-07 9.60677e-08 -9.52898e-08
atom	13.646767	8.629031	6.184651	H	0.000000	0.000000	8.4419e-07 9.7429e-08 -9.93737e-08
atom	18.609227	8.629031	6.184651	H	0.000000	0.000000	8.43412e-07 9.7429e-08 -9.80124e-08
atom	3.721845	13.542358	6.209217	H	0.000000	0.000000	8.44968e-07 9.68456e-08 -9.84013e-08
atom	8.684306	13.542358	6.209217	H	0.000000	0.000000	8.42051e-07 9.49009e-08 -9.4123e-08
atom	13.646767	13.542358	6.209217	H	0.000000	0.000000	8.44968e-07 9.82069e-08 -9.93737e-08
atom	18.609227	13.542358	6.209217	H	0.000000	0.000000	8.41856e-07 9.50954e-08 -9.54843e-08
atom	3.721845	18.455686	6.233784	H	0.000000	0.000000	8.46135e-07 1.00152e-07 -1.00735e-07
atom	8.684306	18.455686	6.233784	H	0.000000	0.000000	8.45357e-07 9.85958e-08 -9.85958e-08
atom	13.646767	18.455686	6.233784	H	0.000000	0.000000	8.4419e-07 9.87903e-08 -1.00152e-07
atom	18.609227	18.455686	6.233784	H	0.000000	0.000000	8.43801e-07 9.87903e-08 -9.66511e-08
atom	8.684306	1.246757	3.691137	H	0.000000	0.000000	8.44579e-07 -9.87903e-08 9.95681e-08
atom	3.721845	1.246757	3.691137	H	0.000000	0.000000	8.43996e-07 -9.95681e-08 9.93737e-08
atom	18.609227	16.060439	18.504819	H	0.000000	0.000000	8.45746e-07 -1.01318e-07 1.0054e-07
atom	11.165536	18.517102	18.517102	H	0.000000	0.000000	1.51064e-06 -1.10575e-06 -1.10517e-06
atom	11.165536	1.283607	11.061128	H	0.000000	0.000000	1.51005e-06 1.10595e-06 1.10478e-06
atom	16.127997	1.283607	11.061128	H	0.000000	0.000000	1.51336e-06 1.10595e-06 1.10595e-06
atom	1.240615	6.196934	11.085695	H	0.000000	0.000000	1.51122e-06 1.10206e-06 1.10167e-06
atom	6.203076	6.196934	11.085695	H	0.000000	0.000000	1.51297e-06 1.10342e-06 1.10458e-06
atom	11.165536	6.196934	11.085695	H	0.000000	0.000000	1.50655e-06 1.09992e-06 1.10108e-06
atom	16.127997	6.196934	11.085695	H	0.000000	0.000000	1.512e-06 1.10225e-06 1.104e-06
atom	1.240615	11.110261	11.110261	H	0.000000	0.000000	1.51161e-06 1.10458e-06 1.10517e-06
atom	6.203076	11.110261	11.110261	H	0.000000	0.000000	1.51472e-06 1.10692e-06 1.1077e-06
atom	11.165536	11.110261	11.110261	H	0.000000	0.000000	1.50986e-06 1.10633e-06 1.10672e-06
atom	16.127997	11.110261	11.110261	H	0.000000	0.000000	1.51472e-06 1.10828e-06 1.10692e-06
atom	1.240615	16.023589	11.134828	H	0.000000	0.000000	1.51375e-06 1.10847e-06 1.10711e-06
atom	6.203076	16.023589	11.134828	H	0.000000	0.000000	1.51452e-06 1.10653e-06 1.10867e-06
atom	11.165536	16.023589	11.134828	H	0.000000	0.000000	1.51122e-06 1.10536e-06 1.10497e-06
atom	1.240615	1.283607	11.061128	H	0.000000	0.000000	1.51277e-06 1.10711e-06 1.10711e-06
atom	16.127997	16.023589	11.134828	H	0.000000	0.000000	1.51122e-06 1.10478e-06 1.10458e-06
atom	6.203076	1.308173	15.974455	H	0.000000	0.000000	1.51316e-06 1.10536e-06 1.1042e-06
atom	11.165536	1.308173	15.974455	H	0.000000	0.000000	1.51064e-06 1.10478e-06 1.10556e-06
atom	16.127997	1.308173	15.974455	H	0.000000	0.000000	1.51355e-06 1.10614e-06 1.10458e-06
atom	1.240615	6.221501	15.999022	H	0.000000	0.000000	1.51452e-06 1.10672e-06 1.10867e-06
atom	6.203076	6.221501	15.999022	H	0.000000	0.000000	1.51414e-06 1.1077e-06 1.10789e-06
atom	11.165536	6.221501	15.999022	H	0.000000	0.000000	1.50927e-06 1.10536e-06 1.10575e-06
atom	16.127997	6.221501	15.999022	H	0.000000	0.000000	1.51239e-06 1.10633e-06 1.10731e-06
atom	1.240615	11.134828	16.023589	H	0.000000	0.000000	1.51666e-06 1.10789e-06 1.11003e-06
atom	6.203076	11.134828	16.023589	H	0.000000	0.000000	1.51394e-06 1.10672e-06 1.10595e-06
atom	11.165536	11.134828	16.023589	H	0.000000	0.000000	1.512e-06 1.10653e-06 1.1075e-06
atom	16.127997	11.134828	16.023589	H	0.000000	0.000000	1.51433e-06 1.10808e-06 1.10711e-06
atom	1.240615	16.048155	16.048155	H	0.000000	0.000000	1.51277e-06 1.10614e-06 1.10731e-06
atom	6.203076	16.048155	16.048155	H	0.000000	0.000000	1.51239e-06 1.10556e-06 1.10478e-06
atom	1.240615	1.308173	15.974455	H	0.000000	0.000000	1.51277e-06 1.10517e-06 1.104e-06
atom	16.127997	15.999022	6.221501	H	0.000000	0.000000	1.51044e-06 1.10342e-06 1.10575e-06
atom	11.165536	15.999022	6.221501	H	0.000000	0.000000	1.51044e-06 1.10517e-06 1.10439e-06
atom	6.203076	15.999022	6.221501	H	0.000000	0.000000	1.51316e-06 1.10497e-06 1.10614e-06
atom	16.127997	18.517102	18.517102	H	0.000000	0.000000	1.51219e-06 -1.10536e-06 -1.10458e-06
atom	6.203076	1.234473	1.234473	H	0.000000	0.000000	1.51452e-06 1.1075e-06 1.10847e-06
atom	11.165536	1.234473	1.234473	H	0.000000	0.000000	1.51122e-06 1.10633e-06 1.10711e-06
atom	16.127997	1.234473	1.234473	H	0.000000	0.000000	1.51414e-06 1.10886e-06 1.10867e-06
atom	1.240615	6.147801	1.259040	H	0.000000	0.000000	1.50986e-06 1.10361e-06 1.10342e-06
atom	6.203076	6.147801	1.259040	H	0.000000	0.000000	1.51336e-06 1.10536e-06 1.10517e-06
atom	11.165536	6.147801	1.259040	H	0.000000	0.000000	1.51141e-06 1.10497e-06 1.10458e-06
atom	16.127997	6.147801	1.259040	H	0.000000	0.000000	1.51258e-06 1.104e-06 1.10556e-06
atom	1.240615	11.061128	1.283607	H	0.000000	0.000000	1.51239e-06 1.10633e-06 1.10633e-06
atom	6.203076	11.061128	1.283607	H	0.000000	0.000000	1.5118e-06 1.10517e-06 1.10633e-06
atom	11.165536	11.061128	1.283607	H	0.000000	0.000000	1.51102e-06 1.10575e-06 1.10556e-06
atom	16.127997	11.061128	1.283607	H	0.000000	0.000000	1.51433e-06 1.10731e-06 1.10867e-06
atom	1.240615	15.974455	1.308173	H	0.000000	0.000000	1.51433e-06 1.10517e-06 1.10614e-06
atom	6.203076	15.974455	1.308173	H	0.000000	0.000000	1.51394e-06 1.10711e-06 1.10789e-06
atom	11.165536	15.974455	1.308173	H	0.000000	0.000000	1.51336e-06 1.10692e-06 1.1075e-06
atom	16.127997	15.974455	1.308173	H	0.000000	0.000000	1.51064e-06 1.10244e-06 1.10517e-06
atom	1.240615	1.259040	6.147801	H	0.000000	0.000000	1.51491e-06 1.10847e-06 1.10906e-06
atom	6.203076	1.259040	6.147801	H	0.000000	0.000000	1.51414e-06 1.10672e-06 1.1077e-06
atom	11.165536	1.259040	6.147801	H	0.000000	0.000000	1.51102e-06 1.10517e-06 1.10595e-06
atom	16.127997	1.259040	6.147801	H	0.000000	0.000000	1.5155e-06 1.10906e-06 1.10867e-06
atom	1.240615	6.172367	6.172367	H	0.000000	0.000000	1.512e-06 1.10595e-06 1.1077e-06
atom	6.203076	6.172367	6.172367	H	0.000000	0.000000	1.51491e-06 1.10808e-06 1.10983e-06
atom	11.165536	6.172367	6.172367	H	0.000000	0.000000	1.51083e-06 1.10536e-06 1.10731e-06
atom	16.127997	6.172367	6.172367	H	0.000000	0.000000	1.51316e-06 1.10556e-06 1.10614e-06
atom	1.240615	11.085695	6.196934	H	0.000000	0.000000	1.51355e-06 1.10556e-06 1.10556e-06
atom	6.203076	11.085695	6.196934	H	0.000000	0.000000	1.5155e-06 1.10808e-06 1.10886e-06
atom	11.165536	11.085695	6.196934	H	0.000000	0.000000	1.51219e-06 1.10692e-06 1.10633e-06
atom	16.127997	11.085695	6.196934	H	0.000000	0.000000	1.51472e-06 1.10672e-06 1.10653e-06
atom	1.240615	15.999022	6.221501	H	0.000000	0.000000	1.51258e-06 1.10517e-06 1.10536e-06
atom	11.165536	16.048155	16.048155	H	0.000000	0.000000	1.51239e-06 1.10692e-06 1.10789e-06
atom	16.127997	16.048155	16.048155	H	0.000000	0.000000	1.51083e-06 1.10439e-06 1.10497e-06
atom	6.203076	1.283607	11.061128	H	0.000000	0.000000	1.51394e-06 1.10847e-06 1.10789e-06
atom	6.203076	18.517102	18.517102	H	0.000000	0.000000	1.51472e-06 -1.10672e-06 -1.10536e-06
atom	6.203076	3.752554	13.530075	H	0.000000	0.000000	1.51608e-06 -1.1077e-06 -1.10945e-06
atom	11.165536	3.752554	13.530075	H	0.000000	0.000000	1.51161e-06 -1.10711e-06 -1.10692e-06
atom	16.127997	3.752554	13.530075	H	0.000000	0.000000	1.51375e-06 -1.10692e-06 -1.1075e-06
atom	1.240615	8.665881	13.554642	H	0.000000	0.000000	1.51472e-06 -1.10711e-06 -1.10692e-06
atom	6.203076	8.665881	13.554642	H	0.000000	0.000000	1.51336e-06 -1.10692e-06 -1.10672e-06
atom	11.165536	8.665881	13.554642	H	0.000000	0.000000	1.50733e-06 -1.10381e-06 -1.10283e-06
atom	16.127997	8.665881	13.554642	H	0.000000	0.000000	1.51414e-06 -1.1077e-06 -1.1075e-06
atom	1.240615	13.579208	13.579208	H	0.000000	0.000000	1.51316e-06 -1.10478e-06 -1.10342e-06
atom	6.203076	13.579208	13.579208	H	0.000000	0.000000	1.51452e-06 -1.10595e-06 -1.10497e-06
atom	11.165536	13.579208	13.579208	H	0.000000	0.000000	1.51044e-06 -1.10536e-06 -1.10303e-06
atom	16.127997	13.579208	13.579208	H	0.000000	0.000000	1.51336e-06 -1.10497e-06 -1.10556e-06
atom	6.203076	18.492536	13.603775	H	0.000000	0.000000	1.51258e-06 -1.10575e-06 -1.10556e-06
atom	11.165536	18.492536	13.603775	H	0.000000	0.000000	1.50927e-06 -1.10439e-06 -1.104e-06
atom	1.240615	3.752554	13.530075	H	0.000000	0.000000	1.51569e-06 -1.11042e-06 -1.10906e-06
atom	16.127997	18.492536	13.603775	H	0.000000	0.000000	1.51375e-06 -1.10595e-06 -1.10731e-06
atom	6.203076	3.777120	18.443402	H	0.000000	0.000000	1.51414e-06 -1.10614e-06 -1.10672e-06
atom	11.165536	3.777120	18.443402	H	0.000000	0.000000	1.51025e-06 -1.10653e-06 -1.10458e-06
atom	16.127997	3.777120	18.443402	H	0.000000	0.000000	1.51141e-06 -1.1042e-06 -1.10361e-06
atom	1.240615	8.690448	18.467969	H	0.000000	0.000000	1.51141e-06 -1.10381e-06 -1.10322e-06
atom	6.203076	8.690448	18.467969	H	0.000000	0.000000	1.51433e-06 -1.10595e-06 -1.10556e-06
atom	11.165536	8.690448	18.467969	H	0.000000	0.000000	1.50908e-06 -1.10381e-06 -1.10361e-06
atom	16.127997	8.690448	18.467969	H	0.000000	0.000000	1.51589e-06 -1.1077e-06 -1.10478e-06
atom	1.240615	13.603775	18.492536	H	0.000000	0.000000	1.51258e-06 -1.10711e-06 -1.10536e-06
atom	6.203076	13.603775	18.492536	H	0.000000	0.000000	1.51414e-06 -1.1077e-06 -1.10731e-06
atom	11.165536	13.603775	18.492536	H	0.000000	0.000000	1.5118e-06 -1.10711e-06 -1.10595e-06
atom	16.127997	13.603775	18.492536	H	0.000000	0.000000	1.51102e-06 -1.10458e-06 -1.10381e-06
atom	1.240615	18.517102	18.517102	H	0.000000	0.000000	1.51336e-06 -1.10692e-06 -1.10575e-06
atom	1.240615	3.703420	3.703420	H	0.000000	0.000000	1.51258e-06 -1.10556e-06 -1.10536e-06
atom	1.240615	3.777120	18.443402	H	0.000000	0.000000	1.51161e-06 -1.104e-06 -1.104e-06
atom	16.127997	18.467969	8.690448	H	0.000000	0.000000	1.51277e-06 -1.10478e-06 -1.10283e-06
atom	1.240615	18.492536	13.603775	H	0.000000	0.000000	1.51141e-06 -1.104e-06 -1.10595e-06
atom	6.203076	18.467969	8.690448	H	0.000000	0.000000	1.51277e-06 -1.1042e-06 -1.10439e-06
atom	6.203076	3.703420	3.703420	H	0.000000	0.000000	1.51452e-06 -1.10692e-06 -1.10614e-06
atom	11.165536	18.467969	8.690448	H	0.000000	0.000000	1.51005e-06 -1.10264e-06 -1.1042e-06
atom	16.127997	3.703420	3.703420	H	0.000000	0.000000	1.51375e-06 -1.10458e-06 -1.10575e-06
atom	1.240615	8.616748	3.727987	H	0.000000	0.000000	1.51064e-06 -1.10361e-06 -1.1042e-06
atom	6.203076	8.616748	3.727987	H	0.000000	0.000000	1.51102e-06 -1.10536e-06 -1.10536e-06
atom	11.165536	8.616748	3.727987	H	0.000000	0.000000	1.51219e-06 -1.10517e-06 -1.10595e-06
atom	16.127997	8.616748	3.727987	H	0.000000	0.000000	1.51277e-06 -1.1077e-06 -1.10614e-06
atom	1.240615	13.530075	3.752554	H	0.000000	0.000000	1.51569e-06 -1.10731e-06 -1.10692e-06
atom	6.203076	13.530075	3.752554	H	0.000000	0.000000	1.512e-06 -1.10536e-06 -1.104e-06
atom	11.165536	13.530075	3.752554	H	0.000000	0.000000	1.51239e-06 -1.1042e-06 -1.1042e-06
atom	16.127997	13.530075	3.752554	H	0.000000	0.000000	1.51064e-06 -1.10497e-06 -1.104e-06
atom	1.240615	18.443402	3.777120	H	0.000000	0.000000	1.51511e-06 -1.10731e-06 -1.10633e-06
atom	6.203076	18.443402	3.777120	H	0.000000	0.000000	1.51258e-06 -1.1077e-06 -1.10633e-06
atom	11.165536	18.443402	3.777120	H	0.000000	0.000000	1.5118e-06 -1.10692e-06 -1.10614e-06
atom	16.127997	18.443402	3.777120	H	0.000000	0.000000	1.51025e-06 -1.10595e-06 -1.10458e-06
atom	11.165536	3.703420	3.703420	H	0.000000	0.000000	1.51239e-06 -1.10653e-06 -1.10478e-06
atom	6.203076	3.727987	8.616748	H	0.000000	0.000000	1.51277e-06 -1.10653e-06 -1.10478e-06
atom	1.240615	3.727987	8.616748	H	0.000000	0.000000	1.51316e-06 -1.10711e-06 -1.10595e-06
atom	1.240615	18.467969	8.690448	H	0.000000	0.000000	1.51102e-06 -1.10264e-06 -1.10283e-06
atom	16.127997	13.554642	8.665881	H	0.000000	0.000000	1.51336e-06 -1.10575e-06 -1.10633e-06
atom	11.165536	13.554642	8.665881	H	0.000000	0.000000	1.51083e-06 -1.10692e-06 -1.10828e-06
atom	6.203076	13.554642	8.665881	H	0.000000	0.000000	1.51686e-06 -1.111e-06 -1.11022e-06
atom	16.127997	8.641314	8.641314	H	0.000000	0.000000	1.51472e-06 -1.10828e-06 -1.10692e-06
atom	1.240615	13.554642	8.665881	H	0.000000	0.000000	1.51375e-06 -1.10867e-06 -1.10906e-06
atom	6.203076	8.641314	8.641314	H	0.000000	0.000000	1.5153e-06 -1.10945e-06 -1.10711e-06
atom	1.240615	8.641314	8.641314	H	0.000000	0.000000	1.51336e-06 -1.10886e-06 -1.10672e-06
atom	16.127997	3.727987	8.616748	H	0.000000	0.000000	1.5155e-06 -1.10847e-06 -1.10808e-06
atom	11.165536	3.727987	8.616748	H	0.000000	0.000000	1.51025e-06 -1.10556e-06 -1.10458e-06
atom	11.165536	8.641314	8.641314	H	0.000000	0.000000	1.51161e-06 -1.10886e-06 -1.10711e-06
atom	2.481230	7.406841	7.406841	O	0.000000	0.000000	-0.00408376 -4.86173e-09 3.03372e-08
atom	12.406151	2.493514	7.382274	O	0.000000	0.000000	-0.00408375 6.10633e-08 7.97323e-09
atom	17.368612	2.493514	7.382274	O	0.000000	0.000000	-0.00408376 2.46976e-08 3.65602e-08
atom	7.443691	2.493514	7.382274	O	0.000000	0.000000	-0.00408374 2.10027e-08 -5.83407e-09
atom	7.443691	7.406841	7.406841	O	0.000000	0.000000	-0.00408373 -2.27529e-08 2.91704e-09
atom	17.368612	12.320168	7.431408	O	0.000000	0.000000	-0.00408374 2.72257e-09 4.04496e-08
atom	17.368612	7.406841	7.406841	O	0.000000	0.000000	-0.0040837 -2.08082e-08 -1.06958e-08
atom	2.481230	12.320168	7.431408	O	0.000000	0.000000	-0.00408374 -2.10027e-08 -4.86173e-08
atom	7.443691	12.320168	7.431408	O	0.000000	0.000000	-0.00408374 3.1115e-08 1.16681e-08
atom	12.406151	12.320168	7.431408	O	0.000000	0.000000	-0.00408382 -3.28653e-08 -2.74201e-08
atom	2.481230	2.493514	7.382274	O	0.000000	0.000000	-0.00408378 1.12792e-08 1.55575e-09
atom	2.481230	17.233496	7.455974	O	0.000000	0.000000	-0.00408374 -1.51686e-08 -5.25066e-09
atom	12.406151	7.406841	7.406841	O	0.000000	0.000000	-0.00408381 1.98358e-08 -2.10027e-08
atom	17.368612	17.208929	2.542647	O	0.000000	0.000000	-0.00408376 -2.64478e-08 1.32239e-08
atom	7.443691	12.295602	2.518080	O	0.000000	0.000000	-0.00408376 5.6396e-09 -9.52898e-09
atom	7.443691	17.208929	2.542647	O	0.000000	0.000000	-0.0040838 -2.74201e-08 -9.14004e-09
atom	2.481230	17.208929	2.542647	O	0.000000	0.000000	-0.00408369 2.02248e-08 9.91792e-09
atom	17.368612	12.295602	2.518080	O	0.000000	0.000000	-0.00408375 1.36128e-08 -5.07564e-08
atom	12.406151	12.295602	2.518080	O	0.000000	0.000000	-0.00408371 -2.29473e-08 3.4421e-08
atom	2.481230	12.295602	2.518080	O	0.000000	0.000000	-0.00408376 1.61409e-08 3.59768e-08
atom	17.368612	7.382274	2.493514	O	0.000000	0.000000	-0.00408377 -1.9058e-08 1.12792e-08
atom	12.406151	7.382274	2.493514	O	0.000000	0.000000	-0.00408377 1.67243e-08 1.2835e-08
atom	7.443691	7.382274	2.493514	O	0.000000	0.000000	-0.00408378 3.01427e-08 -1.40018e-08
atom	2.481230	7.382274	2.493514	O	0.000000	0.000000	-0.00408372 -2.78091e-08 -1.82801e-08
atom	17.368612	2.468947	2.468947	O	0.000000	0.000000	-0.00408376 3.67546e-08 -1.49741e-08
atom	12.406151	2.468947	2.468947	O	0.000000	0.000000	-0.00408379 -9.72345e-09 2.17805e-08
atom	7.443691	2.468947	2.468947	O	0.000000	0.000000	-0.00408377 3.53934e-08 1.08903e-08
atom	7.443691	17.233496	7.455974	O	0.000000	0.000000	-0.00408371 -4.29777e-08 -2.66423e-08
atom	12.406151	17.208929	2.542647	O	0.000000	0.000000	-0.00408379 -9.91792e-09 5.83407e-10
atom	12.406151	17.233496	7.455974	O	0.000000	0.000000	-0.00408375 -7.38982e-09 -2.5281e-09
atom	7.443691	17.282629	17.282629	O	0.000000	0.000000	-0.00408369 -1.45852e-08 4.08385e-09
atom	2.481230	2.518080	12.295602	O	0.000000	0.000000	-0.00408381 -1.55575e-09 2.13916e-08
atom	2.481230	2.468947	2.468947	O	0.000000	0.000000	-0.00408374 -1.06958e-08 -1.82801e-08
atom	2.481230	17.282629	17.282629	O	0.000000	0.000000	-0.00408378 -1.98358e-08 3.26708e-08
atom	17.368612	12.369301	17.258062	O	0.000000	0.000000	-0.00408376 1.69188e-08 3.88938e-09
atom	12.406151	12.369301	17.258062	O	0.000000	0.000000	-0.00408373 -1.75022e-08 1.10847e-08
atom	7.443691	12.369301	17.258062	O	0.000000	0.000000	-0.00408372 7.77876e-09 2.60589e-08
atom	2.481230	12.369301	17.258062	O	0.000000	0.000000	-0.00408376 -1.36128e-08 -3.26708e-08
atom	17.368612	7.455974	17.233496	O	0.000000	0.000000	-0.00408373 2.83925e-08 1.36128e-08
atom	12.406151	7.455974	17.233496	O	0.000000	0.000000	-0.00408374 -7.38982e-09 1.36128e-09
atom	7.443691	7.455974	17.233496	O	0.000000	0.000000	-0.00408373 5.83407e-10 1.26405e-08
atom	2.481230	7.455974	17.233496	O	0.000000	0.000000	-0.00408373 -1.76967e-08 2.13916e-09
atom	17.368612	2.542647	17.208929	O	0.000000	0.000000	-0.00408373 9.72345e-10 7.58429e-09
atom	12.406151	2.542647	17.208929	O	0.000000	0.000000	-0.0040838 -4.64781e-08 1.8669e-08
atom	7.443691	2.542647	17.208929	O	0.000000	0.000000	-0.00408372 5.62016e-08 4.14219e-08
atom	2.481230	2.542647	17.208929	O	0.000000	0.000000	-0.00408374 2.31418e-08 3.88938e-10
atom	17.368612	17.258062	12.369301	O	0.000000	0.000000	-0.00408374 3.90883e-08 -3.69491e-09
atom	12.406151	17.258062	12.369301	O	0.000000	0.000000	-0.00408374 -4.41445e-08 1.75022e-08
atom	7.443691	17.258062	12.369301	O	0.000000	0.000000	-0.00408372 -3.96717e-08 5.13398e-08
atom	2.481230	17.258062	12.369301	O	0.000000	0.000000	-0.00408379 3.94772e-08 -2.76146e-08
atom	17.368612	12.344735	12.344735	O	0.000000	0.000000	-0.00408378 4.08385e-09 -1.18626e-08
atom	12.406151	12.344735	12.344735	O	0.000000	0.000000	-0.00408378 2.11971e-08 2.13916e-09
atom	7.443691	12.344735	12.344735	O	0.000000	0.000000	-0.00408377 7.00089e-09 3.13095e-08
atom	2.481230	12.344735	12.344735	O	0.000000	0.000000	-0.00408373 -1.30294e-08 4.99785e-08
atom	17.368612	7.431408	12.320168	O	0.000000	0.000000	-0.00408376 1.63354e-08 1.32239e-08
atom	12.406151	7.431408	12.320168	O	0.000000	0.000000	-0.00408375 -2.54754e-08 2.87814e-08
atom	7.443691	7.431408	12.320168	O	0.000000	0.000000	-0.00408375 -6.02854e-09 -2.08082e-08
atom	2.481230	7.431408	12.320168	O	0.000000	0.000000	-0.00408372 4.7256e-08 1.08903e-08
atom	17.368612	2.518080	12.295602	O	0.000000	0.000000	-0.0040837 1.38073e-08 1.47796e-08
atom	12.406151	2.518080	12.295602	O	0.000000	0.000000	-0.00408376 1.80856e-08 1.10847e-08
atom	7.443691	2.518080	12.295602	O	0.000000	0.000000	-0.00408372 2.46976e-08 -3.30597e-09
atom	17.368612	17.233496	7.455974	O	0.000000	0.000000	-0.00408372 1.06958e-08 2.13916e-08
atom	14.887382	14.813682	14.813682	O	0.000000	0.000000	0.00407899 1.16681e-09 -3.05316e-08
atom	0.000000	0.000000	0.000000	O	0.000000	0.000000	0.00407899 2.10027e-08 -4.6867e-08
atom	4.962461	14.813682	14.813682	O	0.000000	0.000000	0.00407911 5.44513e-09 -8.94558e-09
atom	14.887382	9.851221	4.962461	O	0.000000	0.000000	0.00407901 -2.33363e-08 -2.58644e-08
atom	9.924921	9.851221	4.962461	O	0.000000	0.000000	0.00407908 -7.19535e-09 -4.08385e-09
atom	4.962461	9.851221	4.962461	O	0.000000	0.000000	0.00407901 5.44513e-09 -1.78912e-08
atom	0.000000	9.851221	4.962461	O	0.000000	0.000000	0.00407905 -2.10027e-08 -4.0644e-08
atom	14.887382	4.937894	4.937894	O	0.000000	0.000000	0.00407899 6.06743e-08 -2.39197e-08
atom	9.924921	4.937894	4.937894	O	0.000000	0.000000	0.00407903 6.22301e-09 2.17805e-08
atom	4.962461	4.937894	4.937894	O	0.000000	0.000000	0.00407904 -2.50865e-08 -4.27832e-09
atom	0.000000	4.937894	4.937894	O	0.000000	0.000000	0.00407902 1.43907e-08 -1.51686e-08
atom	14.887382	19.677876	5.011594	O	0.000000	0.000000	0.00407902 2.72257e-09 -3.13095e-08
atom	9.924921	19.677876	5.011594	O	0.000000	0.000000	0.00407903 -1.53631e-08 2.80035e-08