begin
comment AIRSS data using PBE DFT
lattice		20.577879	0.000000	0.000000
lattice		0.000000	20.577879	0.000000
lattice		0.000000	0.000000	20.577879
atom	4.215661	13.311872	7.501623	H	0.000000	0.000000	-0.00544074 -0.00315971 0.0118157
atom	9.565200	13.119156	9.871145	H	0.000000	0.000000	-0.00300118 0.0220658 -0.00645185
atom	6.476616	1.755697	13.428469	H	0.000000	0.000000	-0.0523203 0.015926 0.0215982
atom	10.340654	3.562427	5.602077	H	0.000000	0.000000	0.0452109 -0.0381607 0.0162145
atom	10.111358	12.144651	16.542151	H	0.000000	0.000000	0.0023393 0.0260664 0.0166741
atom	7.634392	9.515898	9.722149	H	0.000000	0.000000	0.0112793 -0.0162123 -0.028135
atom	9.635154	15.920722	5.262097	H	0.000000	0.000000	0.000397745 -0.0128366 -0.013954
atom	18.217141	18.291956	5.109817	H	0.000000	0.000000	-0.01946 0.0461118 -0.00190256
atom	1.795927	16.832332	2.636858	H	0.000000	0.000000	-0.0104453 -0.0278921 0.0165874
atom	3.785195	12.438044	15.523600	H	0.000000	0.000000	-0.0386952 0.0320435 -0.0165966
atom	8.394260	7.226787	3.092870	H	0.000000	0.000000	-0.00268067 9.02437e-05 -0.00542542
atom	2.295655	5.387933	12.073305	H	0.000000	0.000000	0.00669408 -0.00875477 -0.0338042
atom	1.793811	0.800934	13.948563	H	0.000000	0.000000	-0.00639581 0.00797423 0.0204779
atom	12.316361	9.466786	13.522591	H	0.000000	0.000000	0.0815998 -0.00264989 0.010998
atom	6.153288	2.779861	5.439365	H	0.000000	0.000000	-0.00225098 0.015262 -0.00479318
atom	20.312629	7.856400	2.267694	H	0.000000	0.000000	-0.0430453 0.0677914 -0.00233314
atom	12.495761	12.792473	4.606296	H	0.000000	0.000000	-0.0925795 -0.0301667 0.0199966
atom	0.777738	12.101463	17.855912	H	0.000000	0.000000	-0.0287913 0.0146078 0.013926
atom	2.330077	17.617476	17.291260	H	0.000000	0.000000	-0.0247479 0.060547 0.0399477
atom	11.653001	20.000810	3.008487	H	0.000000	0.000000	0.0566109 0.0396869 0.108061
atom	4.515272	7.247554	0.881361	H	0.000000	0.000000	-0.00668553 0.0106908 -0.0783644
atom	3.442562	12.029227	4.989578	H	0.000000	0.000000	-0.00376544 -0.0628163 0.00816813
atom	13.194828	14.497348	1.544968	H	0.000000	0.000000	-0.020257 0.0321166 -0.0528198
atom	2.972080	15.576702	10.143458	H	0.000000	0.000000	0.0667109 -0.129264 -0.0198212
atom	17.099061	16.687635	6.884971	H	0.000000	0.000000	-0.024987 -0.0147505 0.01806
atom	2.233123	9.991653	11.235926	H	0.000000	0.000000	0.0536574 0.0216774 0.0144134
atom	4.737020	14.243566	1.172170	H	0.000000	0.000000	-0.00107744 0.00695303 -0.0431636
atom	9.060601	15.942978	10.385205	H	0.000000	0.000000	-0.00450719 0.0460424 0.0684891
atom	8.097679	2.043967	11.097233	H	0.000000	0.000000	0.0150496 -0.0240072 0.0693883
atom	12.752851	6.442274	19.950715	H	0.000000	0.000000	0.0214876 0.0206782 0.0106235
atom	7.443049	12.653808	15.481144	H	0.000000	0.000000	0.0227855 0.0289785 0.0190513
atom	7.141803	9.522468	6.679822	H	0.000000	0.000000	0.0269942 -0.00520369 0.0173204
atom	13.146303	4.415636	6.027524	H	0.000000	0.000000	-0.024899 -0.0532065 0.00469595
atom	15.801838	19.637973	6.470604	H	0.000000	0.000000	-0.0372076 -0.0125876 0.0342568
atom	3.659330	18.466096	1.382661	H	0.000000	0.000000	-0.0533909 0.00418076 0.00300408
atom	9.718304	14.512342	2.548760	H	0.000000	0.000000	-0.00274231 0.00516194 0.0101119
atom	6.081202	8.701213	2.070211	H	0.000000	0.000000	0.0223262 0.00312392 0.005365
atom	20.477623	3.715309	12.070186	H	0.000000	0.000000	-0.0316647 -0.0188239 -0.0265418
atom	4.332387	9.589254	16.332277	H	0.000000	0.000000	0.00304643 0.00953362 -0.00838282
atom	9.995300	10.638854	14.089107	H	0.000000	0.000000	-0.0206407 0.0202078 0.00629902
atom	16.492169	10.274090	10.488694	H	0.000000	0.000000	-0.0130629 0.0442097 0.0542294
atom	0.456621	1.983423	16.506210	H	0.000000	0.000000	0.0306823 -0.0347088 -0.0301293
atom	14.760138	14.292827	6.123772	H	0.000000	0.000000	-0.0238219 -0.00945522 -0.0466589
atom	19.109133	14.061249	18.752515	H	0.000000	0.000000	0.0212619 -0.0364426 -0.00858923
atom	19.411254	8.552772	20.450307	H	0.000000	0.000000	-0.0194715 0.0202442 -0.0209463
atom	11.098021	0.815855	0.208505	H	0.000000	0.000000	0.00143586 -0.0529139 0.0595003
atom	4.293937	9.977264	0.149456	H	0.000000	0.000000	-0.00505088 0.00551942 -0.0383189
atom	10.740229	6.176391	18.529583	H	0.000000	0.000000	-0.00534385 -0.0188365 -0.0102897
atom	11.111837	16.398552	0.481048	H	0.000000	0.000000	-0.0444419 0.0481412 0.0165667
atom	1.660474	17.471916	8.824672	H	0.000000	0.000000	-0.033164 0.0298099 -0.0997221
atom	2.737268	8.871757	5.767147	H	0.000000	0.000000	0.0102014 -0.0100439 -0.0136793
atom	19.984719	11.279804	10.964163	H	0.000000	0.000000	0.0302659 0.000657496 0.0163529
atom	4.326271	14.658039	18.648147	H	0.000000	0.000000	0.0347624 0.0218354 -0.0390894
atom	15.949091	16.278976	9.396692	H	0.000000	0.000000	0.00517561 -0.00204789 0.0659389
atom	11.125871	2.160585	16.252339	H	0.000000	0.000000	0.0314195 -0.022373 -0.00460131
atom	19.859531	14.763128	3.975227	H	0.000000	0.000000	-0.0430023 -0.00899378 -0.0951904
atom	5.295320	17.096713	11.695029	H	0.000000	0.000000	0.00229791 0.0140801 -0.00222608
atom	5.262742	18.036635	17.205673	H	0.000000	0.000000	0.00601874 0.0269604 0.0213728
atom	0.618791	2.311531	2.332239	H	0.000000	0.000000	0.0105964 -0.0229429 0.00820894
atom	18.468961	4.325557	16.547744	H	0.000000	0.000000	0.0108985 -0.0369156 -0.044415
atom	8.380138	19.223492	5.654633	H	0.000000	0.000000	-0.0378056 0.0224146 0.00988851
atom	14.407572	8.606477	3.273304	H	0.000000	0.000000	0.163957 0.0683116 0.0254294
atom	13.989832	8.537096	7.538464	H	0.000000	0.000000	0.0391216 0.0193967 -0.00296865
atom	17.790093	15.583904	12.350961	H	0.000000	0.000000	0.0790437 -0.0201063 0.0206626
atom	4.105236	4.464436	8.367891	H	0.000000	0.000000	-0.00648863 -0.00591601 0.0161294
atom	11.959356	10.553651	17.346632	H	0.000000	0.000000	0.0418181 -0.00774104 0.0169353
atom	13.221820	2.295505	8.405290	H	0.000000	0.000000	0.0250399 -0.0172551 0.0154386
atom	11.474570	18.054784	15.412911	H	0.000000	0.000000	0.0124636 0.0483894 0.027523
atom	17.300002	13.470088	1.961301	H	0.000000	0.000000	0.0263666 0.0453054 -0.0312535
atom	5.617466	3.346160	18.694034	H	0.000000	0.000000	0.015187 -0.0290947 0.047832
atom	19.971238	4.045988	8.621048	H	0.000000	0.000000	-0.0141717 -0.0467664 0.0218294
atom	0.712933	15.814773	14.127786	H	0.000000	0.000000	-0.0217966 0.00125865 0.0213799
atom	12.557150	7.062458	4.536058	H	0.000000	0.000000	-0.00110686 0.0282512 -0.0269672
atom	19.556510	4.818116	4.280431	H	0.000000	0.000000	0.0152025 0.0455906 0.0194809
atom	16.853568	7.154258	13.561347	H	0.000000	0.000000	0.017384 -0.0250089 -0.022883
atom	7.759758	6.236034	18.364044	H	0.000000	0.000000	0.0592606 0.0435164 0.00618951
atom	12.133350	4.900078	9.981263	H	0.000000	0.000000	-0.0703706 0.0109013 0.0523727
atom	6.636470	7.254422	14.929251	H	0.000000	0.000000	-0.0219975 -0.00733142 -0.00578586
atom	16.889223	19.625780	19.351985	H	0.000000	0.000000	0.000155885 0.0284026 -0.0153693
atom	7.972522	19.642519	8.416107	H	0.000000	0.000000	-0.0211738 0.0158192 -0.00748617
atom	14.871109	16.370793	12.873336	H	0.000000	0.000000	-0.0517567 -0.0306747 0.049297
atom	13.594135	0.399190	17.160504	H	0.000000	0.000000	-0.00989171 0.0213675 -0.00128355
atom	14.794533	12.923974	11.878977	H	0.000000	0.000000	0.0491051 -0.0534471 0.0174561
atom	3.823952	16.385477	14.214741	H	0.000000	0.000000	0.0213129 0.00678731 0.00134798
atom	7.439905	16.660753	17.234091	H	0.000000	0.000000	-0.00588482 0.0522661 0.0610676
atom	1.897471	14.247786	5.210153	H	0.000000	0.000000	0.0180368 0.00787852 -0.00536374
atom	16.583581	4.241468	19.036925	H	0.000000	0.000000	0.0386522 0.0433976 -0.0604233
atom	0.767300	3.598944	20.446451	H	0.000000	0.000000	0.0202631 0.012109 -0.0356762
atom	12.982929	4.402224	1.354955	H	0.000000	0.000000	0.00210703 0.00637675 -0.0704901
atom	11.286207	8.386214	8.258988	H	0.000000	0.000000	-0.0250126 -0.00472131 0.0013944
atom	18.902981	13.439231	14.372942	H	0.000000	0.000000	0.00912138 0.00200104 -0.00622535
atom	6.361530	5.966058	8.917354	H	0.000000	0.000000	-0.00749629 -0.00424356 0.0286016
atom	14.662708	12.125652	17.389219	H	0.000000	0.000000	-0.023716 -0.0403703 0.00668627
atom	16.222425	1.911595	9.889701	H	0.000000	0.000000	-0.0312112 0.0194431 -0.0082465
atom	10.248201	15.718034	14.898642	H	0.000000	0.000000	0.0268686 0.012618 -0.0400495
atom	16.616509	16.225837	2.293000	H	0.000000	0.000000	0.017165 -0.00185405 -0.0267557
atom	6.142098	0.842051	20.472820	H	0.000000	0.000000	0.00785162 0.0425883 -0.012058
atom	19.191609	1.137937	7.580357	H	0.000000	0.000000	0.0132287 0.035358 0.0693538
atom	16.302804	10.695489	6.509551	H	0.000000	0.000000	0.00359251 0.0307614 -0.0217045
atom	3.401654	6.725114	14.032130	H	0.000000	0.000000	0.0667827 0.0170717 0.0142475
atom	5.149684	5.767138	4.907114	H	0.000000	0.000000	0.0196657 -0.0309953 0.0031311
atom	15.300304	4.981223	13.828342	H	0.000000	0.000000	0.0217171 -0.0134336 -0.0314322
atom	17.930248	6.526696	5.571016	H	0.000000	0.000000	-0.103494 0.0214524 0.0232571
atom	9.330610	5.778785	11.972987	H	0.000000	0.000000	0.022213 0.00727818 0.0105521
atom	6.784556	14.618162	7.693497	H	0.000000	0.000000	-0.0345866 0.0137831 -0.0234939
atom	17.954277	1.562922	20.529710	H	0.000000	0.000000	-0.0212398 -0.0166583 -0.0555904
atom	19.002103	9.753667	7.893407	H	0.000000	0.000000	-0.0422253 -0.00621135 -0.0135866
atom	14.276890	18.902595	11.639945	H	0.000000	0.000000	0.0456158 -0.0263532 0.00890111
atom	11.026683	19.782599	1.497211	O	0.000000	0.000000	-0.0628531 0.0292469 -0.161567
atom	4.630376	8.401386	19.719093	O	0.000000	0.000000	-0.0348818 -0.0319986 0.0890711
atom	9.419557	7.399307	18.294348	O	0.000000	0.000000	-0.0764279 -0.02157 -0.0173649
atom	12.452596	15.498188	20.444964	O	0.000000	0.000000	0.0744525 -0.0834558 0.022224
atom	2.209076	16.999341	10.328335	O	0.000000	0.000000	-0.0559754 0.119454 0.101118
atom	2.464281	10.635674	5.978308	O	0.000000	0.000000	0.00937095 0.0426804 -0.00163603
atom	0.563313	9.811717	10.823561	O	0.000000	0.000000	-0.0832734 -0.0181238 -0.0271427
atom	3.674715	14.145428	20.171816	O	0.000000	0.000000	-0.0276535 -0.045492 0.107248
atom	15.407946	16.468851	7.735392	O	0.000000	0.000000	0.00543642 -0.0313355 -0.100997
atom	9.193763	14.803865	9.102405	O	0.000000	0.000000	0.0204854 -0.0682924 -0.0454219
atom	7.993629	1.028943	12.963796	O	0.000000	0.000000	0.0344886 0.00990279 -0.0833556
atom	4.934304	14.853455	6.815956	O	0.000000	0.000000	0.0285866 -0.0197762 0.0198314
atom	9.228353	13.697395	16.030570	O	0.000000	0.000000	-0.0588166 -0.0610301 -0.00717
atom	8.335411	8.867311	8.049895	O	0.000000	0.000000	-0.0513018 0.0394345 0.0086685
atom	12.140063	2.633571	5.956346	O	0.000000	0.000000	-0.037161 0.090562 -0.0442497
atom	17.082677	19.878246	5.305672	O	0.000000	0.000000	0.0845766 0.00749908 -0.0582087
atom	1.711881	18.386980	1.788915	O	0.000000	0.000000	0.0647857 0.046573 -0.0226462
atom	8.774174	14.715059	4.142047	O	0.000000	0.000000	0.0104179 -0.0013288 -0.0127947
atom	7.816294	8.904704	2.618847	O	0.000000	0.000000	0.00836217 0.0157895 0.0313007
atom	0.988629	4.654213	13.072231	O	0.000000	0.000000	0.0309636 0.0329173 0.0597222
atom	4.997310	11.289232	16.035155	O	0.000000	0.000000	0.0380003 0.00873233 0.0206566
atom	10.647166	9.267876	13.159888	O	0.000000	0.000000	-0.059224 -0.0142821 -0.0337245
atom	7.051346	20.051883	6.811516	O	0.000000	0.000000	0.0532662 -0.0257208 -0.00556148
atom	1.712578	0.656039	15.810191	O	0.000000	0.000000	-0.0188157 0.0235136 0.0215592
atom	14.083146	13.243870	4.231228	O	0.000000	0.000000	0.113695 0.0395742 0.0397953
atom	19.490018	12.264992	18.137140	O	0.000000	0.000000	0.00146812 0.0282102 -0.0204389
atom	19.277011	9.489183	1.460207	O	0.000000	0.000000	0.0502853 -0.0815558 0.0219915
atom	12.850128	1.463733	15.823301	O	0.000000	0.000000	-0.0206409 0.00160154 -0.00246987
atom	16.300772	11.629185	12.449366	O	0.000000	0.000000	-0.0704083 -0.0153012 -0.0890323
atom	5.501238	16.127886	13.206362	O	0.000000	0.000000	0.0334869 -0.0228687 0.00035112
atom	6.605730	18.209026	18.571410	O	0.000000	0.000000	0.0127906 -0.0668027 -0.0819007
atom	0.209075	14.762282	5.386456	O	0.000000	0.000000	0.00047494 0.0284109 0.105437
atom	17.857422	5.366996	17.789393	O	0.000000	0.000000	-0.0503703 0.0232583 0.0929513
atom	20.212391	3.317424	1.195726	O	0.000000	0.000000	-0.0208885 -0.00154221 0.0386608
atom	13.038519	4.646417	19.887955	O	0.000000	0.000000	0.00781153 -0.0335108 0.0789523
atom	12.791095	7.363916	8.052992	O	0.000000	0.000000	-0.000729419 -0.020483 -0.0115548
atom	19.610294	14.470354	12.940398	O	0.000000	0.000000	-0.0261051 0.0500373 0.0190119
atom	4.850256	5.258188	9.878412	O	0.000000	0.000000	0.00894059 -0.00361339 -0.0580688
atom	13.845679	10.370838	17.583913	O	0.000000	0.000000	-0.00706863 0.0331539 -0.00992208
atom	14.333739	2.301104	9.978588	O	0.000000	0.000000	0.0128805 -0.027815 0.00885185
atom	11.403050	17.122771	13.924840	O	0.000000	0.000000	-0.0207635 -0.053452 -0.0122823
atom	18.006180	15.298273	1.361638	O	0.000000	0.000000	-0.0548372 -0.0450644 0.0476238
atom	6.277247	2.801408	20.493032	O	0.000000	0.000000	-0.0262805 -0.0188606 -0.0523209
atom	19.652667	2.241532	9.462469	O	0.000000	0.000000	-0.00748346 -0.00109376 -0.115971
atom	2.240974	16.393235	16.095223	O	0.000000	0.000000	-0.0303206 -0.0881371 -0.0629851
atom	12.946337	8.045046	2.906579	O	0.000000	0.000000	-0.159406 -0.0841759 0.000523048
atom	6.474263	4.447030	4.586855	O	0.000000	0.000000	-0.0112565 0.00353255 0.0125327
atom	16.740266	5.465175	12.619426	O	0.000000	0.000000	-0.044396 0.0453082 0.0600278
atom	19.595635	6.503339	5.365074	O	0.000000	0.000000	0.105814 -0.0937602 -0.0385526
atom	10.058837	4.918773	10.556642	O	0.000000	0.000000	0.0351693 -0.0379155 -0.0437482
atom	5.210480	7.606883	13.758425	O	0.000000	0.000000	-0.0335673 -0.0319201 0.00226805
atom	17.001443	0.893236	18.802601	O	0.000000	0.000000	0.0254269 -0.0429469 0.0749775
atom	17.028786	9.436383	7.560114	O	0.000000	0.000000	0.0524194 0.00480597 0.0466463
atom	15.780854	17.496211	11.912897	O	0.000000	0.000000	-0.00200265 0.0738882 -0.0136127
energy		 -27.61143902
charge            0.00000
end
begin
comment AIRSS data using PBE DFT
lattice		20.577879	0.000000	0.000000
lattice		0.000000	20.577879	0.000000
lattice		0.000000	0.000000	20.577879
atom	2.634570	15.939942	7.233536	H	0.000000	0.000000	0.0293427 -0.00185279 -0.0532173
atom	10.846675	13.852378	6.349526	H	0.000000	0.000000	0.00611992 0.032525 -0.00396963
atom	11.294465	19.602662	10.895896	H	0.000000	0.000000	0.0321916 0.0199883 -0.0205585
atom	7.323303	5.448787	1.805673	H	0.000000	0.000000	0.0100038 -0.00192096 -0.0193347
atom	8.278140	13.051535	17.206358	H	0.000000	0.000000	-0.00372476 -0.0883697 -0.0316213
atom	12.750034	8.124546	6.559959	H	0.000000	0.000000	-0.0280135 -0.0073596 0.00846803
atom	9.844723	15.117014	0.650592	H	0.000000	0.000000	-0.0089647 -0.0570133 0.0356314
atom	13.688775	4.242310	4.311351	H	0.000000	0.000000	-0.0199626 -0.0210111 -0.0126389
atom	3.067016	20.564674	5.426624	H	0.000000	0.000000	0.00569475 0.00640804 -0.0100133
atom	3.875670	11.898980	18.985961	H	0.000000	0.000000	0.0151802 -0.00167204 -0.0412056
atom	6.923697	8.497135	1.627905	H	0.000000	0.000000	-0.0050933 2.30833e-05 0.0082991
atom	20.034041	4.976785	14.400921	H	0.000000	0.000000	-0.0115434 -0.000983146 0.00579925
atom	6.159621	17.063309	14.558971	H	0.000000	0.000000	0.00231744 0.0164963 0.0153733
atom	11.299315	12.280198	11.927745	H	0.000000	0.000000	-0.0182049 -0.00371138 -0.00657206
atom	3.413676	4.613787	3.172861	H	0.000000	0.000000	0.00684164 0.0313933 -0.0223958
atom	18.647938	9.739206	3.050918	H	0.000000	0.000000	0.00156572 -0.0503941 -0.0202378
atom	15.204037	10.664694	2.728412	H	0.000000	0.000000	-0.00488541 -0.0261727 0.0121639
atom	17.859580	12.699242	18.522763	H	0.000000	0.000000	0.0164914 -0.0134534 0.0069008
atom	2.914236	16.388131	2.802992	H	0.000000	0.000000	-0.026135 -0.0115652 -0.0634473
atom	8.261758	17.864697	2.240224	H	0.000000	0.000000	-0.120399 -0.12647 0.00151153
atom	1.853287	7.487963	19.585211	H	0.000000	0.000000	0.0351732 0.00663879 0.0450692
atom	7.598580	9.038186	8.947491	H	0.000000	0.000000	0.00697476 0.00412607 0.000643265
atom	12.258045	13.179859	19.247651	H	0.000000	0.000000	-0.00128339 -0.00281617 0.0126132
atom	1.546227	20.513645	10.410734	H	0.000000	0.000000	-0.0700621 -0.00708226 -0.065297
atom	13.696930	0.087768	6.584465	H	0.000000	0.000000	-0.0267398 0.000985544 0.0103008
atom	0.406026	9.202625	13.659630	H	0.000000	0.000000	-0.00104145 -0.0145493 -0.00340999
atom	4.507730	11.966617	4.540660	H	0.000000	0.000000	0.00197676 0.0635222 0.0107586
atom	11.017258	11.611579	4.408122	H	0.000000	0.000000	-0.0325489 0.0260179 0.0739053
atom	9.246676	19.411635	12.732812	H	0.000000	0.000000	-0.0348993 0.0235149 0.0475598
atom	16.335099	0.387879	19.017535	H	0.000000	0.000000	0.0186678 0.0198297 -0.00542761
atom	7.862569	10.070178	15.255638	H	0.000000	0.000000	0.0197337 0.049173 0.0530016
atom	12.547546	5.767550	7.924192	H	0.000000	0.000000	-0.0431036 0.0238564 -0.0272527
atom	7.051492	6.721520	4.503886	H	0.000000	0.000000	0.00708013 0.0516754 0.0383068
atom	10.896691	4.153465	4.067445	H	0.000000	0.000000	-0.00231879 0.00152139 -0.000620277
atom	1.302238	19.732219	7.421109	H	0.000000	0.000000	0.0111277 -0.0194641 -0.000525349
atom	8.043195	12.355779	1.058488	H	0.000000	0.000000	0.0332769 0.0422348 0.020098
atom	3.871874	8.626639	2.036889	H	0.000000	0.000000	0.0436942 0.0055419 -0.020803
atom	19.625206	5.848384	11.594264	H	0.000000	0.000000	0.0142775 -0.0297084 0.0343102
atom	3.278213	14.177082	19.684289	H	0.000000	0.000000	-0.00182862 0.0392935 -0.020798
atom	12.924024	11.140095	13.831435	H	0.000000	0.000000	-0.023907 -0.017836 -0.00409749
atom	14.506701	15.242183	7.649937	H	0.000000	0.000000	0.0181357 -0.028372 0.0397027
atom	6.839917	19.239191	16.774221	H	0.000000	0.000000	-0.00154387 -0.0236564 -0.0288332
atom	16.669973	12.597847	1.866492	H	0.000000	0.000000	0.0197374 0.029295 -0.00423867
atom	20.223462	10.831172	18.797227	H	0.000000	0.000000	0.0085607 0.00342904 -0.00845769
atom	0.173106	7.548703	3.183434	H	0.000000	0.000000	-0.0248113 0.00231631 -0.00626775
atom	8.547552	0.082534	2.206356	H	0.000000	0.000000	-0.0487868 0.0634641 -0.0115316
atom	1.709138	5.576640	17.441676	H	0.000000	0.000000	-0.00902742 0.0146237 0.0165807
atom	7.791973	7.431374	19.389737	H	0.000000	0.000000	0.0363977 -0.0452242 -0.0299361
atom	13.014354	15.062539	17.575629	H	0.000000	0.000000	0.0115759 0.0170226 -0.0157177
atom	4.053613	0.653107	10.946364	H	0.000000	0.000000	0.0158528 0.00838584 0.0108089
atom	7.509332	11.793251	8.319326	H	0.000000	0.000000	0.0140939 0.0255028 -0.0282018
atom	2.971760	8.100494	12.401105	H	0.000000	0.000000	-0.00550106 -0.0315553 -0.0233516
atom	6.348219	14.205548	4.730649	H	0.000000	0.000000	0.0584918 0.0129777 -0.00736881
atom	11.210662	0.541789	5.127737	H	0.000000	0.000000	0.0183492 0.00545786 0.0514469
atom	13.588181	20.353034	15.194750	H	0.000000	0.000000	0.00733984 0.0344782 -0.0399706
atom	17.659156	18.295413	6.460762	H	0.000000	0.000000	-0.0529743 -0.0302576 -0.0442729
atom	4.753415	11.813394	11.587928	H	0.000000	0.000000	-0.003812 0.0633667 0.02711
atom	11.180706	18.057816	18.983818	H	0.000000	0.000000	0.00406302 0.0255295 -0.0170002
atom	18.541162	2.738321	4.512809	H	0.000000	0.000000	-0.00270595 -0.00737141 -0.0346971
atom	16.879215	6.155588	19.784223	H	0.000000	0.000000	0.0265819 -0.0383409 -0.0283954
atom	5.446523	18.007875	8.198311	H	0.000000	0.000000	-0.0162009 -0.0160096 -0.00771502
atom	12.338665	10.740295	2.064510	H	0.000000	0.000000	-0.00431447 -0.0263467 -0.00255124
atom	16.847178	8.423533	7.436636	H	0.000000	0.000000	-0.0207277 0.0124064 0.00956697
atom	20.538786	15.430251	13.803186	H	0.000000	0.000000	0.0311171 0.0411144 0.00351746
atom	6.571597	5.791031	9.709063	H	0.000000	0.000000	-0.00379971 -0.0436478 -0.0343269
atom	12.987039	7.281409	15.302610	H	0.000000	0.000000	0.0173919 0.00658103 0.0353205
atom	14.025985	2.540824	9.160094	H	0.000000	0.000000	0.00600565 -0.00204565 -0.0133503
atom	13.680991	14.757689	13.544033	H	0.000000	0.000000	0.112443 -0.0359706 -0.0976563
atom	17.298872	17.983564	0.315780	H	0.000000	0.000000	-0.0264785 0.0268395 0.0260064
atom	4.910403	2.031299	20.543696	H	0.000000	0.000000	-0.0295035 0.0284302 -0.0233644
atom	18.513037	1.583481	8.829314	H	0.000000	0.000000	0.0484818 0.0426491 0.10646
atom	2.931023	18.450805	0.786729	H	0.000000	0.000000	-0.0100444 -0.0183758 -0.0190299
atom	12.861774	8.716456	0.169679	H	0.000000	0.000000	-0.00121943 -0.00588545 0.0185047
atom	0.098500	4.716811	7.507796	H	0.000000	0.000000	0.0584526 0.0624708 -0.00387608
atom	16.385559	8.740997	14.164303	H	0.000000	0.000000	-0.0218264 0.0173721 0.121165
atom	10.489404	5.730181	18.998220	H	0.000000	0.000000	-0.0267428 0.0115485 -0.000607886
atom	9.805889	6.453388	13.147323	H	0.000000	0.000000	-0.0204346 0.0392258 -0.0116775
atom	4.354509	7.507776	14.745576	H	0.000000	0.000000	-0.00991745 0.0432055 -0.00159031
atom	0.341275	18.686135	17.658462	H	0.000000	0.000000	-0.0160867 -0.0214003 0.0152577
atom	7.962828	18.478223	8.433368	H	0.000000	0.000000	0.0239997 -0.0173575 -0.0102845
atom	16.795966	19.222396	10.072687	H	0.000000	0.000000	-0.0260016 -0.0261351 0.0219738
atom	13.602072	1.423643	12.054029	H	0.000000	0.000000	-0.0228194 -0.0212848 0.103167
atom	12.919308	14.106128	9.797385	H	0.000000	0.000000	0.02555 -0.00695785 -0.011891
atom	2.930407	13.555074	13.542645	H	0.000000	0.000000	0.0219326 -0.0112064 -0.00352524
atom	11.072702	20.227472	16.551377	H	0.000000	0.000000	-0.00374852 -0.0140873 0.0203573
atom	15.834575	19.325898	4.383967	H	0.000000	0.000000	-0.0172624 0.0572758 -0.0320877
atom	15.710527	4.443276	17.319076	H	0.000000	0.000000	0.0494495 0.0034637 0.032555
atom	18.459145	1.663108	1.611671	H	0.000000	0.000000	-0.039854 -0.0402266 -0.0383052
atom	13.771571	1.761332	20.010861	H	0.000000	0.000000	-0.00350948 0.0384032 0.0216981
atom	15.571410	10.745958	6.318752	H	0.000000	0.000000	-0.00411498 -0.0170851 0.046793
atom	18.630911	14.233442	13.841230	H	0.000000	0.000000	-0.0652115 -0.127844 -0.031062
atom	7.455097	3.278596	8.370647	H	0.000000	0.000000	0.0514599 -0.0426339 0.0121246
atom	15.071120	7.341439	17.906821	H	0.000000	0.000000	-0.027621 0.0208305 -0.0478206
atom	16.541319	4.185911	10.135272	H	0.000000	0.000000	-0.0283953 -0.000788512 0.00313997
atom	11.847428	16.628689	14.004136	H	0.000000	0.000000	-0.0137154 -0.0113465 0.0107034
atom	19.786302	16.653841	20.487883	H	0.000000	0.000000	-0.0315782 -0.00541094 -0.00519016
atom	7.814394	1.566244	19.327770	H	0.000000	0.000000	-0.0238025 0.00593601 0.00195579
atom	19.152938	0.012257	6.530562	H	0.000000	0.000000	0.0513335 -0.0148034 -0.0292578
atom	19.388516	11.788190	10.092857	H	0.000000	0.000000	0.0022692 -0.00732881 -0.0303591
atom	5.396969	5.392583	15.295081	H	0.000000	0.000000	0.0185508 -0.0636843 0.0274158
atom	1.061922	4.924302	1.827590	H	0.000000	0.000000	-0.071047 -0.0285456 -0.0108314
atom	14.917028	8.949512	11.612934	H	0.000000	0.000000	0.0349747 -0.00356019 0.0164615
atom	0.461798	7.828020	7.571957	H	0.000000	0.000000	0.0161903 -0.0166069 0.000810931
atom	12.217043	5.334431	11.271661	H	0.000000	0.000000	-0.00559209 0.0261127 -0.0030442
atom	3.261226	15.633370	10.102776	H	0.000000	0.000000	-0.0315855 -0.0122213 -0.0226582
atom	1.511957	20.255413	15.748853	H	0.000000	0.000000	-0.0294828 0.0259185 0.058565
atom	0.670646	12.614624	8.118341	H	0.000000	0.000000	0.0543183 0.0464288 -0.00326344
atom	15.114403	17.155327	11.909750	H	0.000000	0.000000	0.0230809 0.0367646 -0.0350101
atom	9.255214	19.116260	2.288772	O	0.000000	0.000000	0.182829 0.0494521 0.029601
atom	0.900910	7.091300	18.194864	O	0.000000	0.000000	-0.0138109 -0.0196014 -0.0790235
atom	8.603759	5.623603	19.008240	O	0.000000	0.000000	-0.00722916 0.0442663 0.0148658
atom	12.988996	14.868427	19.407756	O	0.000000	0.000000	-0.00876362 -0.0185388 0.0114535
atom	2.556020	0.008867	11.755909	O	0.000000	0.000000	0.05639 -0.000482719 0.0649931
atom	6.999241	10.660550	9.581407	O	0.000000	0.000000	-0.0234083 -0.0362233 0.0298437
atom	2.099423	9.500832	13.056585	O	0.000000	0.000000	-0.0153053 0.0398006 0.0149671
atom	4.647972	13.928212	5.007666	O	0.000000	0.000000	-0.0643469 -0.0775606 -0.0160544
atom	11.961810	0.736065	6.973534	O	0.000000	0.000000	0.000469011 -0.0495848 -0.00236597
atom	10.370845	12.143357	6.280852	O	0.000000	0.000000	0.017481 -0.0502694 -0.0509831
atom	9.959785	18.561294	11.382719	O	0.000000	0.000000	-0.00626473 -0.0517571 -0.0303038
atom	1.797145	15.751682	8.741032	O	0.000000	0.000000	-0.00192349 0.0105706 0.0880489
atom	8.567372	10.967579	16.947756	O	0.000000	0.000000	-0.0186239 0.0383659 -0.0107518
atom	11.280596	6.876483	6.860877	O	0.000000	0.000000	0.0547482 -0.0116465 0.0208101
atom	7.044633	5.269362	3.580548	O	0.000000	0.000000	0.00340129 -0.0754592 -0.0131996
atom	12.348703	3.086828	3.597149	O	0.000000	0.000000	0.0275005 0.0539452 -0.049614
atom	1.533565	19.581263	5.597717	O	0.000000	0.000000	0.00502204 0.00680609 0.00464869
atom	9.347089	13.599366	1.970855	O	0.000000	0.000000	-0.028824 0.0118544 -0.0701599
atom	5.464081	9.528317	1.232301	O	0.000000	0.000000	-0.0366584 0.0129745 0.0133587
atom	20.172837	4.321008	12.700781	O	0.000000	0.000000	-0.0129019 0.0304479 -0.0413661
atom	3.764027	13.526103	17.978905	O	0.000000	0.000000	-0.00839668 -0.039646 0.0512019
atom	11.573545	10.614452	12.615614	O	0.000000	0.000000	0.032045 0.004098 0.0094668
atom	6.927733	17.354311	7.323289	O	0.000000	0.000000	0.00252341 0.0379374 0.022749
atom	6.368430	18.890415	14.960010	O	0.000000	0.000000	-0.0137401 0.00284036 0.0044257
atom	16.337677	11.880890	3.517231	O	0.000000	0.000000	0.00300977 0.0107719 -0.0087439
atom	18.477128	11.053018	19.212280	O	0.000000	0.000000	-0.0354515 0.0254167 -0.008689
atom	19.069708	7.851732	2.379582	O	0.000000	0.000000	0.00549855 0.0561913 0.0432981
atom	12.841967	1.274200	14.166440	O	0.000000	0.000000	0.038765 -0.016064 -0.0380937
atom	14.713739	13.981262	9.183589	O	0.000000	0.000000	-0.0416724 0.0426086 -0.0278513
atom	4.505605	13.660382	12.552511	O	0.000000	0.000000	-0.000228999 -0.0267441 -0.023194
atom	10.192173	19.051987	17.721845	O	0.000000	0.000000	-0.00757576 -0.000634984 0.00313369
atom	16.281603	17.833793	5.117905	O	0.000000	0.000000	0.0522184 -0.0633453 0.0572288
atom	17.388529	4.856698	18.353927	O	0.000000	0.000000	-0.0721136 0.0150624 0.00118416
atom	19.235318	2.677312	2.757014	O	0.000000	0.000000	0.0410722 0.0498806 0.0610878
atom	14.574509	0.345600	19.349656	O	0.000000	0.000000	-0.00702346 -0.0599499 -0.0131803
atom	15.342711	9.501754	7.852261	O	0.000000	0.000000	0.028839 -0.0036841 -0.0591399
atom	18.837581	15.792364	14.373527	O	0.000000	0.000000	0.0321005 0.0864701 0.0233511
atom	6.366865	4.600014	8.159489	O	0.000000	0.000000	-0.0482042 0.0755617 0.0386764
atom	13.794774	8.328653	16.770874	O	0.000000	0.000000	-0.00128655 -0.0224655 0.0118726
atom	14.785069	4.209101	9.444726	O	0.000000	0.000000	0.0184699 0.00265836 0.013185
atom	12.546798	15.000363	14.692264	O	0.000000	0.000000	-0.0998473 0.0573187 0.0719921
atom	17.910727	16.644532	19.938674	O	0.000000	0.000000	0.0568106 -0.0314078 -0.0136226
atom	6.524292	1.348731	0.075559	O	0.000000	0.000000	0.0291915 -0.0299662 0.00984381
atom	17.974037	0.989715	7.377768	O	0.000000	0.000000	-0.0806243 0.00409409 -0.0643646
atom	2.262683	16.674648	0.801744	O	0.000000	0.000000	0.0387402 0.0291454 0.0917087
atom	12.809527	8.867013	2.077317	O	0.000000	0.000000	-0.0132264 0.0321816 -0.0431548
atom	2.627719	5.681398	1.761790	O	0.000000	0.000000	0.0709305 -0.0240689 0.0395758
atom	16.571692	8.468677	12.538848	O	0.000000	0.000000	0.00141489 -0.00930978 -0.140118
atom	1.557377	6.236982	7.458594	O	0.000000	0.000000	-0.0797365 -0.0334329 0.00417376
atom	10.990517	5.270454	12.617995	O	0.000000	0.000000	0.0174879 -0.0492353 0.0232423
atom	5.908167	6.701855	14.249686	O	0.000000	0.000000	0.00627091 0.0188819 -0.0193434
atom	0.515097	20.480534	17.587352	O	0.000000	0.000000	0.0476235 0.00235774 -0.0784275
atom	19.867042	11.587017	8.274237	O	0.000000	0.000000	-0.0557518 -0.0542268 0.0263916
atom	15.085267	18.585359	10.607927	O	0.000000	0.000000	0.0149624 0.00723701 0.0137322
energy		 -27.83695749
charge            0.00000
end
begin
comment AIRSS data using PBE DFT
lattice		20.577879	0.000000	0.000000
lattice		0.000000	20.577879	0.000000
lattice		0.000000	0.000000	20.577879
atom	18.780310	19.835622	7.067867	H	0.000000	0.000000	-0.0719037 0.0537786 0.111914
atom	14.307394	12.024572	3.849052	H	0.000000	0.000000	0.0265767 0.00140763 0.00441862
atom	10.490047	16.102721	7.735807	H	0.000000	0.000000	0.00132707 -0.0246199 0.0188199
atom	5.299662	6.556152	5.451720	H	0.000000	0.000000	0.0140467 -0.00156428 -0.0286648
atom	4.808475	10.744383	13.647581	H	0.000000	0.000000	0.00804411 0.0077268 0.0155333
atom	11.311330	6.030642	5.465492	H	0.000000	0.000000	0.0119468 -0.0298087 0.0284416
atom	5.543633	13.714915	20.360707	H	0.000000	0.000000	-0.0117818 0.0110759 0.0142433
atom	18.272517	4.302967	2.445123	H	0.000000	0.000000	-0.00176336 -0.042543 -0.0321422
atom	5.232810	0.769841	6.867294	H	0.000000	0.000000	-0.0332989 0.0110726 -0.0146
atom	2.521873	14.453042	16.868056	H	0.000000	0.000000	-0.000912657 -0.0065377 0.0197558
atom	4.954409	11.607750	4.382787	H	0.000000	0.000000	-0.00386662 0.0151554 0.0143328
atom	0.199413	6.882654	13.328662	H	0.000000	0.000000	-0.0102203 -0.0150074 -0.0141867
atom	9.951279	17.290997	13.380581	H	0.000000	0.000000	0.0028115 0.00948798 0.0198524
atom	9.885976	8.802073	10.610380	H	0.000000	0.000000	-0.00674609 0.0199976 -0.000742695
atom	2.465624	1.619539	19.283022	H	0.000000	0.000000	0.00550906 0.00969477 0.0594321
atom	0.579874	8.480193	2.089196	H	0.000000	0.000000	-0.0219333 0.0240702 0.00471866
atom	16.722772	16.025292	6.046993	H	0.000000	0.000000	0.00555498 -0.018561 -0.0316596
atom	15.548175	8.674702	19.841666	H	0.000000	0.000000	-0.0403565 -0.0222642 -0.00768862
atom	5.853605	17.703991	3.084235	H	0.000000	0.000000	-0.0215206 -0.0333187 0.0550802
atom	9.319768	17.552894	4.130199	H	0.000000	0.000000	-0.0901793 0.0448693 0.00386626