begin
comment AIRSS data using PBE DFT
lattice		15.821940	0.000000	0.000000
lattice		0.000000	15.821940	0.000000
lattice		0.000000	0.000000	15.821940
atom	0.532089	3.549232	2.021759	H	0.000000	0.000000	-0.0130334 0.0117938 -0.040807
atom	14.905862	13.311412	14.015991	H	0.000000	0.000000	-0.0282331 0.00360637 -0.00959384
atom	11.818150	0.602781	14.377075	H	0.000000	0.000000	0.097152 -0.0730898 -0.0891856
atom	13.640081	0.012473	3.087420	H	0.000000	0.000000	0.0584507 0.140073 -0.0980125
atom	1.718739	9.021749	14.697281	H	0.000000	0.000000	0.0268903 0.0314778 -0.00231752
atom	5.908091	2.944622	10.647835	H	0.000000	0.000000	0.00823431 0.0154261 0.00640991
atom	14.033188	2.289902	11.962004	H	0.000000	0.000000	0.0266097 0.0260186 0.00799461
atom	11.268320	1.292317	10.376882	H	0.000000	0.000000	-0.0900357 0.0411505 -0.0550699
atom	7.444212	13.286355	11.537815	H	0.000000	0.000000	0.00942795 0.0113437 -0.0137493
atom	15.708383	4.762670	7.123676	H	0.000000	0.000000	0.0043655 0.0170108 0.00296346
atom	9.219245	11.233440	4.627666	H	0.000000	0.000000	0.0379205 -0.020705 -0.0238661
atom	8.966968	15.679067	1.313097	H	0.000000	0.000000	0.00862817 0.0145421 0.00131392
atom	11.072370	8.012586	2.482837	H	0.000000	0.000000	0.0393853 0.0097292 -0.0696255
atom	13.942348	14.437964	1.262668	H	0.000000	0.000000	-0.0132215 -0.0530003 -0.0299393
atom	8.711112	7.670183	14.993751	H	0.000000	0.000000	0.0066154 -0.0525983 0.0278991
atom	9.737345	8.608731	7.414894	H	0.000000	0.000000	0.00459382 -0.0194193 -0.0263849
atom	7.007171	0.745738	6.247086	H	0.000000	0.000000	0.0352896 0.0519534 -0.0365708
atom	2.506049	13.793015	8.472857	H	0.000000	0.000000	-0.0371105 0.00182716 -0.0612144
atom	3.281632	7.415947	9.147186	H	0.000000	0.000000	0.0425391 0.0496931 0.00111978
atom	15.204288	10.626073	15.717814	H	0.000000	0.000000	-0.00522999 -0.0126283 0.0453558
atom	9.636416	0.746151	4.532985	H	0.000000	0.000000	0.0258347 0.0321376 -0.0142963
atom	14.498063	9.443171	8.021200	H	0.000000	0.000000	0.0137755 -0.0292362 -0.00064375
atom	10.006926	13.764497	8.078171	H	0.000000	0.000000	-0.000203108 0.00183273 0.0700768
atom	13.091690	12.006080	7.184151	H	0.000000	0.000000	0.0408794 0.0126879 -0.0112497
atom	14.245773	3.264649	4.335688	H	0.000000	0.000000	0.0492737 -0.0190186 0.0140437
atom	9.732951	2.627401	12.347139	H	0.000000	0.000000	0.144585 0.0426375 0.0576151
atom	10.650929	10.847878	12.989933	H	0.000000	0.000000	0.00978209 -0.0402201 -0.002887
atom	1.468798	9.215473	7.664005	H	0.000000	0.000000	0.048629 0.00605286 0.000626133
atom	5.244909	0.730048	8.962576	H	0.000000	0.000000	0.0165079 0.0296203 -0.0194349
atom	4.271047	12.322948	3.365055	H	0.000000	0.000000	-0.0310131 -0.0326545 0.0333852
atom	2.349456	6.541731	7.750391	H	0.000000	0.000000	-0.0315934 -0.0573926 -0.0379191
atom	5.430435	13.968874	10.491719	H	0.000000	0.000000	-0.0658618 -0.0123445 -0.0429198
atom	8.037318	2.786899	12.861412	H	0.000000	0.000000	-0.0740524 0.0174173 0.0446479
atom	1.813231	1.484860	0.448820	H	0.000000	0.000000	0.0123221 -0.0173465 -0.00763737
atom	12.043984	2.524631	1.234008	H	0.000000	0.000000	0.0665091 -0.0199544 -0.0303315
atom	4.813665	8.679980	5.350377	H	0.000000	0.000000	-0.0229816 0.0286156 -0.0510101
atom	1.653289	5.122055	1.297858	H	0.000000	0.000000	-0.0239839 0.00139012 0.00468755
atom	2.863657	11.278096	15.391901	H	0.000000	0.000000	-0.000362009 0.00743628 0.00753176
atom	12.865125	11.830846	9.909219	H	0.000000	0.000000	0.00944662 -0.0252114 0.0194694
atom	4.345156	11.720776	13.475307	H	0.000000	0.000000	0.023277 -0.00594903 -0.00294538
atom	6.546361	9.124886	7.451188	H	0.000000	0.000000	0.00209043 0.0190601 0.0209374
atom	5.004532	4.823902	6.917404	H	0.000000	0.000000	-0.0132997 0.0168764 -0.0227825
atom	6.093536	3.360259	1.917754	H	0.000000	0.000000	-0.0406602 0.0190294 0.0196443
atom	6.711831	1.784151	15.532410	H	0.000000	0.000000	-0.0838333 -0.0215429 0.0716906
atom	4.160180	5.378312	0.352752	H	0.000000	0.000000	-0.0477427 0.0371667 0.0148605
atom	12.884674	12.597624	11.783341	H	0.000000	0.000000	0.0195515 -0.0899426 0.0469321
atom	10.780984	13.953085	2.978344	H	0.000000	0.000000	0.0371823 0.00148404 0.00167846
atom	11.419509	5.635181	9.391344	H	0.000000	0.000000	-0.0605214 0.0520845 -0.0362057
atom	15.007175	11.462003	12.073391	H	0.000000	0.000000	0.0330269 -0.0200051 -0.027713
atom	1.241691	15.569621	2.065324	H	0.000000	0.000000	0.00266779 -0.0454534 -0.00829858
atom	4.129087	0.302799	11.513291	H	0.000000	0.000000	-0.00179212 -0.0187478 0.0607357
atom	7.045775	8.429855	12.295333	H	0.000000	0.000000	-0.100125 -0.0406181 -0.0154311
atom	8.360484	5.577286	5.894867	H	0.000000	0.000000	-0.0188656 -0.0459131 -0.0110764
atom	1.291887	11.780454	4.344692	H	0.000000	0.000000	-0.0125792 0.0382943 0.0265116
atom	3.073345	7.691480	11.206253	H	0.000000	0.000000	0.0325576 0.0287292 0.0230935
atom	12.187678	4.669643	0.068559	H	0.000000	0.000000	0.0116456 0.0216805 -0.049689
atom	7.379089	15.530366	7.095082	H	0.000000	0.000000	0.0303661 -0.0445123 0.0694684
atom	11.976071	12.867525	9.138323	H	0.000000	0.000000	-0.0499208 0.0565491 0.0127415
atom	9.606198	0.150913	10.770757	H	0.000000	0.000000	-0.0495796 -0.0237611 0.00333119
atom	1.451719	4.825183	10.569497	H	0.000000	0.000000	0.0357194 -0.0679091 -0.114057
atom	9.836281	2.609063	7.380558	H	0.000000	0.000000	0.0251068 0.0104929 -0.0303823
atom	4.363385	3.022855	13.813943	H	0.000000	0.000000	-0.013877 0.00293023 0.032019
atom	0.060124	3.056427	7.422759	H	0.000000	0.000000	-0.0197649 0.0407453 -0.0242726
atom	15.027418	14.720412	8.809602	H	0.000000	0.000000	0.0241915 0.0612333 0.0486022
atom	15.297517	3.896063	13.887085	H	0.000000	0.000000	-0.00552225 0.0215532 -0.0279636
atom	8.673309	10.100514	2.793328	H	0.000000	0.000000	0.0789952 0.061261 0.0908716
atom	5.011479	14.173006	2.281292	H	0.000000	0.000000	0.0498805 0.274514 0.0605354
atom	5.132503	7.583861	15.330711	H	0.000000	0.000000	0.113398 -0.0175263 -0.101309
atom	7.556609	1.670118	14.729023	H	0.000000	0.000000	0.0851699 -0.045541 -0.0668975
atom	9.846938	13.658425	1.067132	H	0.000000	0.000000	-0.0391347 -0.0372843 0.016431
atom	12.631645	11.278170	2.444304	H	0.000000	0.000000	-0.00588348 -0.0211009 0.0297022
atom	8.244245	9.598887	12.761958	H	0.000000	0.000000	-0.0268727 0.0356885 0.0306182
atom	3.210351	1.505496	4.008381	H	0.000000	0.000000	0.0169566 -0.00433705 -0.0632189
atom	12.475930	13.735068	11.549551	H	0.000000	0.000000	-0.0366475 0.0932093 0.000181099
atom	1.142149	14.560410	13.075986	H	0.000000	0.000000	0.0628085 0.0258009 0.0448251
atom	9.710142	2.544947	1.514342	H	0.000000	0.000000	0.0287109 0.136271 -0.0932876
atom	11.829552	4.430991	5.619374	H	0.000000	0.000000	-0.00655023 -0.0395153 0.0141617
atom	7.025828	15.064937	13.447681	H	0.000000	0.000000	-0.0363116 0.00689181 0.0233063
atom	2.122118	4.135027	4.057912	H	0.000000	0.000000	-0.00689877 0.0323712 0.0118662
atom	3.219046	5.632382	12.268223	H	0.000000	0.000000	0.0240645 0.00539689 0.0287928
atom	15.300243	6.947791	2.941819	H	0.000000	0.000000	0.0073278 0.0363953 -0.0246928
atom	12.409636	4.099757	11.011385	H	0.000000	0.000000	-0.0184741 -0.0290652 0.0886483
atom	0.536600	1.419349	10.809541	H	0.000000	0.000000	-0.0199565 -1.97627e-05 0.0528873
atom	4.165737	8.082364	2.600159	H	0.000000	0.000000	0.0187521 -0.0679355 -0.0115375
atom	15.171423	7.056985	11.153342	H	0.000000	0.000000	-0.0198881 -0.00274972 0.0102566
atom	9.302011	10.012304	8.858636	H	0.000000	0.000000	0.0516591 0.0155445 0.0278
atom	2.099276	1.193369	9.151497	H	0.000000	0.000000	0.216932 -0.0395691 -0.0189635
atom	5.015339	11.360301	9.913637	H	0.000000	0.000000	-0.0380486 -0.0112224 -0.0285133
atom	11.383731	9.191367	6.029440	H	0.000000	0.000000	0.0452134 0.012312 -0.0147597
atom	1.584091	10.023284	2.804215	H	0.000000	0.000000	-0.046471 -0.0271083 -0.0025938
atom	0.930007	8.891278	11.922673	H	0.000000	0.000000	-0.0208606 0.0419922 -0.0235911
atom	9.263783	13.390842	5.596027	H	0.000000	0.000000	-0.296163 -0.333004 -0.254723
atom	2.374492	2.106717	6.299665	H	0.000000	0.000000	0.00323726 0.0315007 -0.0158637
atom	11.620723	13.961036	5.961880	H	0.000000	0.000000	0.143855 -0.00297485 -0.0405204
atom	15.373792	7.479704	5.662999	H	0.000000	0.000000	-0.0334502 0.0102297 0.0352004
atom	7.684727	11.514785	9.343579	H	0.000000	0.000000	-0.00617618 0.0277312 -0.0123436
atom	6.402850	10.194690	2.541908	H	0.000000	0.000000	-0.0041133 -0.0356994 -0.0505571
atom	11.258595	5.612897	3.222997	H	0.000000	0.000000	0.0272116 0.0163888 -0.00453321
atom	8.852855	6.687962	9.970876	H	0.000000	0.000000	-0.0491333 -0.0176193 -0.0219713
atom	5.737831	1.981221	5.324857	H	0.000000	0.000000	-0.0059828 0.0490486 0.0252361
atom	7.343380	2.012208	3.200478	H	0.000000	0.000000	0.0122287 0.0155908 0.0137933
atom	10.719803	5.973034	13.662673	H	0.000000	0.000000	0.0106741 0.000660645 0.00369285
atom	6.695775	5.003297	14.162073	H	0.000000	0.000000	0.0240982 0.0212261 0.00908866
atom	6.825960	14.989709	11.984588	H	0.000000	0.000000	-0.0234376 0.0552784 0.0738377
atom	11.492348	11.720856	15.198503	H	0.000000	0.000000	0.0406508 0.0269533 0.00243266
atom	13.181831	1.728963	7.956462	H	0.000000	0.000000	-0.0331219 0.0085245 -0.0330173
atom	8.663188	12.041706	12.521015	H	0.000000	0.000000	-0.0504139 -0.11671 -0.123253
atom	8.093790	7.634903	5.378687	H	0.000000	0.000000	-0.00305466 0.0110559 -0.032186
atom	13.940169	7.945461	7.005355	O	0.000000	0.000000	0.13409 -0.0339288 -0.0676058
atom	12.671038	8.200615	0.610681	O	0.000000	0.000000	-0.101353 0.0276692 0.00563518
atom	4.005752	7.858085	0.617361	O	0.000000	0.000000	-0.0944785 -0.0994952 0.0395084
atom	6.982886	14.797004	9.575915	O	0.000000	0.000000	0.130461 -0.0583158 -0.0374382
atom	2.779441	9.504828	10.509887	O	0.000000	0.000000	-0.12031 -0.0244093 0.00926782
atom	11.665202	10.202969	8.268078	O	0.000000	0.000000	-0.174811 0.0202825 0.0292644
atom	3.832909	9.366161	3.763847	O	0.000000	0.000000	0.0571867 0.118617 0.108999
atom	9.922914	9.005889	12.531407	O	0.000000	0.000000	0.076961 -0.0207364 -0.0103595
atom	7.925730	9.472284	5.941058	O	0.000000	0.000000	0.00834217 -0.0610237 -0.0562486
atom	8.144863	12.995011	2.563500	O	0.000000	0.000000	0.0694407 0.145931 -0.0492121
atom	10.017738	14.341934	6.287126	O	0.000000	0.000000	0.122541 0.353946 0.303158
atom	8.676915	5.130869	14.698846	O	0.000000	0.000000	-0.0154878 0.0848711 0.00153965
atom	2.466839	13.061742	5.178410	O	0.000000	0.000000	-0.162934 -0.0275384 -0.0207437
atom	3.452565	3.809536	7.201299	O	0.000000	0.000000	-0.121322 0.0446363 0.0051957
atom	12.779679	0.986950	10.939416	O	0.000000	0.000000	0.0436743 -0.139201 -0.150502
atom	10.556782	0.960993	15.297215	O	0.000000	0.000000	-0.168426 -0.0145783 0.0550202
atom	12.414934	5.102448	13.973328	O	0.000000	0.000000	0.0431214 0.0280273 0.030964
atom	5.253661	14.873381	6.003385	O	0.000000	0.000000	-0.0520351 0.167004 -0.0435806
atom	0.394944	13.863453	11.696175	O	0.000000	0.000000	-0.0976004 -0.090373 -0.00556934
atom	14.404426	8.879748	11.545939	O	0.000000	0.000000	-0.00103212 0.100114 0.0195186
atom	3.581279	13.055724	9.604405	O	0.000000	0.000000	0.0330229 -0.0150401 0.0835662
atom	9.072553	13.012341	13.715415	O	0.000000	0.000000	0.0991348 0.0949028 0.14858
atom	3.434296	7.814521	6.902902	O	0.000000	0.000000	-0.0572137 0.0116512 0.124848
atom	12.945155	4.906735	9.644940	O	0.000000	0.000000	0.0440702 0.0281381 -0.0713796
atom	3.428027	15.260622	14.449496	O	0.000000	0.000000	0.0688265 -0.00824345 -0.0543149
atom	6.728410	9.937361	9.545375	O	0.000000	0.000000	0.00380584 0.0451937 0.0605136
atom	5.059975	4.077180	15.283437	O	0.000000	0.000000	-0.0464913 -0.0315759 -0.0935134
atom	4.383637	1.946168	10.799870	O	0.000000	0.000000	-0.0765945 0.0338532 0.0550326
atom	13.112845	14.795854	4.179965	O	0.000000	0.000000	-0.0501856 -0.143558 -0.0226153
atom	3.969385	1.982683	1.973846	O	0.000000	0.000000	-0.039848 -0.0536893 0.16097
atom	0.847767	15.257377	0.145504	O	0.000000	0.000000	0.0575704 0.0054501 0.0781147
atom	1.487743	5.915270	4.124204	O	0.000000	0.000000	0.0602291 -0.0451837 -0.0371893
atom	15.430045	1.571877	5.451754	O	0.000000	0.000000	0.0309902 0.0674307 -0.0658754
atom	4.727632	12.801409	1.676201	O	0.000000	0.000000	-0.0726934 -0.220939 -0.155518
atom	14.579411	2.114859	0.947464	O	0.000000	0.000000	-0.0753214 0.079223 0.081771
atom	14.411361	13.447971	7.846872	O	0.000000	0.000000	-0.0261503 -0.11942 -0.0843505
atom	15.186799	9.708776	2.680116	O	0.000000	0.000000	0.0972822 0.0802656 1.32476e-05
atom	13.685975	1.572871	13.769320	O	0.000000	0.000000	0.224596 0.0140461 0.0551178
atom	5.091612	9.990398	13.928922	O	0.000000	0.000000	0.0252669 0.154624 -0.063987
atom	4.991994	6.558110	12.008479	O	0.000000	0.000000	0.0130823 -0.0731212 -0.00326436
atom	13.749616	5.923086	3.322656	O	0.000000	0.000000	-0.141344 -0.149864 0.0420349
atom	0.574640	1.531589	9.045616	O	0.000000	0.000000	-0.176664 -0.0190264 0.0693901
atom	8.615371	2.159671	11.155031	O	0.000000	0.000000	-0.000687305 0.00708902 -0.0604701
atom	9.388239	1.435332	2.681073	O	0.000000	0.000000	-0.137617 -0.160611 0.206296
atom	0.666262	5.343355	11.935679	O	0.000000	0.000000	-0.0127639 -0.0529157 0.0836282
atom	0.619597	7.641166	14.902943	O	0.000000	0.000000	-0.0531248 -0.00926729 0.0230202
atom	11.240033	11.076010	3.819246	O	0.000000	0.000000	0.0601485 -0.0677865 0.0776809
atom	5.920467	12.815415	6.042875	O	0.000000	0.000000	0.0882459 -0.222414 0.00876563
atom	11.440507	2.400553	6.156759	O	0.000000	0.000000	-0.0283375 0.0701163 0.0919269
atom	13.449169	12.768228	15.450932	O	0.000000	0.000000	-0.00770136 -0.010183 0.0218512
atom	6.139705	2.434422	7.485330	O	0.000000	0.000000	0.13765 -0.0619909 -0.0841318
atom	8.323586	9.264390	1.475601	O	0.000000	0.000000	-0.11824 -0.137771 -0.152395
atom	7.317029	5.965370	8.925525	O	0.000000	0.000000	0.111173 0.00246218 -0.0192431
atom	7.491792	4.654566	3.892511	O	0.000000	0.000000	-0.0114155 0.0596088 0.0204085
energy		 -19.19330487
charge            0.00000
end
begin
comment AIRSS data using PBE DFT
lattice		15.821940	0.000000	0.000000
lattice		0.000000	15.821940	0.000000
lattice		0.000000	0.000000	15.821940
atom	12.026529	14.933836	15.664939	H	0.000000	0.000000	0.0423284 0.0881317 -0.00211017
atom	13.697186	2.031980	11.163950	H	0.000000	0.000000	0.00765746 -0.0158482 -0.0280387
atom	1.771121	11.622061	0.466483	H	0.000000	0.000000	0.021362 0.00456658 0.0313675
atom	5.387953	14.598557	0.393155	H	0.000000	0.000000	-0.011642 -0.0297128 -0.0188013
atom	10.090930	7.939810	3.413019	H	0.000000	0.000000	-0.00206538 -0.0636505 0.0849401
atom	4.856625	7.240934	14.736328	H	0.000000	0.000000	-0.00709946 -0.0278497 0.0388481
atom	12.074387	6.222509	8.832612	H	0.000000	0.000000	-0.00162043 0.00289495 -0.0203803
atom	3.318386	11.297965	14.294057	H	0.000000	0.000000	0.0340771 -0.00716804 -0.0287359
atom	1.065514	8.704322	12.956085	H	0.000000	0.000000	0.0322515 -0.0304255 0.00896122
atom	6.238625	5.244198	5.354301	H	0.000000	0.000000	0.00182695 -0.0381984 0.00524941
atom	11.963197	7.859136	11.417374	H	0.000000	0.000000	-0.0277097 0.0212334 0.0468359
atom	4.312214	14.247957	12.193900	H	0.000000	0.000000	-0.0233428 0.0326409 0.0117022
atom	9.288716	7.510379	13.660048	H	0.000000	0.000000	0.0947988 -0.140934 0.137522
atom	6.818922	11.005676	12.206843	H	0.000000	0.000000	-0.0335122 0.022169 0.00690501
atom	5.877334	11.757491	15.623157	H	0.000000	0.000000	0.0278263 0.0451614 0.0763015
atom	13.271247	3.876014	13.576629	H	0.000000	0.000000	0.0477523 0.000758424 0.0437588
atom	4.894835	10.805609	9.038792	H	0.000000	0.000000	-0.0230296 0.0715272 -0.0762894
atom	13.107656	1.590803	4.384329	H	0.000000	0.000000	-0.0258538 0.0250204 0.000422535
atom	7.063531	9.788617	10.027510	H	0.000000	0.000000	-0.0432288 -0.0416369 -0.0190521
atom	15.509576	0.785445	10.451932	H	0.000000	0.000000	-0.00438964 0.0127851 -0.0226372
atom	11.496250	7.102871	4.834057	H	0.000000	0.000000	0.0127704 -0.0284078 0.0157153
atom	10.123767	8.376255	9.435474	H	0.000000	0.000000	0.102911 0.0133445 0.0888241
atom	0.786063	15.803001	5.590566	H	0.000000	0.000000	0.00437635 -0.00749233 0.00463059
atom	13.161959	12.518778	12.957820	H	0.000000	0.000000	0.00601757 -0.0963857 0.154007
atom	15.296431	7.903484	12.358170	H	0.000000	0.000000	-0.0198446 -0.0749129 0.0302844
atom	12.211455	4.377820	12.868418	H	0.000000	0.000000	-0.0513213 0.017189 -0.0128169
atom	8.877062	11.305240	5.887798	H	0.000000	0.000000	-0.0079771 0.00426426 0.0415427
atom	14.708828	10.684911	8.314533	H	0.000000	0.000000	-0.0302041 0.0260956 -0.0357345
atom	8.212478	1.830319	13.294541	H	0.000000	0.000000	0.0205645 -0.00208628 0.0198295
atom	12.690326	2.098223	13.596057	H	0.000000	0.000000	-0.0222712 -0.0151145 0.00517312
atom	2.021277	1.217490	9.059674	H	0.000000	0.000000	-0.0227102 -0.00479939 -0.0127144
atom	15.267505	7.303674	14.101567	H	0.000000	0.000000	-0.027762 -0.0363258 -0.0471957
atom	15.756154	9.052531	0.652859	H	0.000000	0.000000	-0.0119115 0.0158612 0.0457241
atom	13.403755	0.080247	6.332070	H	0.000000	0.000000	0.0261247 -0.0536407 0.0921736
atom	10.177803	12.907668	4.193922	H	0.000000	0.000000	0.0497532 -0.0289554 -0.0253706
atom	9.282109	14.221040	4.640136	H	0.000000	0.000000	-0.0521832 0.117953 0.0628523
atom	6.501967	13.500546	5.754822	H	0.000000	0.000000	-0.00684192 0.0252899 0.0397531
atom	6.588245	13.922457	12.718041	H	0.000000	0.000000	0.00319558 -0.00211309 -0.0111034
atom	12.722495	4.945867	10.264790	H	0.000000	0.000000	0.0352216 0.00639304 0.0235612
atom	1.622317	0.331421	13.095718	H	0.000000	0.000000	0.0152481 -0.0370026 -0.00781768
atom	10.758914	8.925441	1.872199	H	0.000000	0.000000	0.0472974 0.0599996 -0.0336192
atom	1.612225	3.846489	15.462591	H	0.000000	0.000000	0.0159891 0.0226614 0.0822806
atom	8.045930	11.295114	3.703866	H	0.000000	0.000000	-0.0547007 -0.0194841 -0.0189812
atom	15.201229	5.553806	6.950084	H	0.000000	0.000000	-0.0134608 -0.0476735 0.054047
atom	15.028631	0.360136	13.024230	H	0.000000	0.000000	0.0289038 -0.0199947 0.00971776
atom	8.986730	13.484955	13.344352	H	0.000000	0.000000	0.024415 0.019185 -0.0419163
atom	9.188017	0.529096	7.950852	H	0.000000	0.000000	-0.0301285 -0.057292 -0.0379271
atom	1.551659	10.692837	5.095198	H	0.000000	0.000000	-0.00552957 0.0284823 0.0274223
atom	6.115771	0.928382	11.978484	H	0.000000	0.000000	-0.0264566 0.0343306 0.000722861
atom	5.514738	15.127104	3.457305	H	0.000000	0.000000	0.0134665 -0.00495632 0.00323111
atom	7.528928	4.182739	3.177086	H	0.000000	0.000000	-0.0842844 -0.0505433 0.0863258
atom	2.520730	7.413759	6.062353	H	0.000000	0.000000	0.0162346 0.00272474 -0.0217439
atom	10.793899	4.888828	8.573004	H	0.000000	0.000000	-0.00622122 -0.0301425 -0.0377302
atom	2.276923	6.600038	10.870902	H	0.000000	0.000000	0.0194957 -0.00421996 -0.013522
atom	0.128212	7.914057	5.720466	H	0.000000	0.000000	0.0390466 0.0187182 -0.00418188
atom	9.470213	8.296822	0.667016	H	0.000000	0.000000	-0.0467629 -0.0264032 -0.0708613
atom	14.735996	1.052123	14.918800	H	0.000000	0.000000	0.0211881 0.0312244 -0.00675821
atom	0.735641	13.205363	7.170419	H	0.000000	0.000000	-0.0540557 0.0522286 -0.00390692
atom	7.861814	8.241151	1.070412	H	0.000000	0.000000	-0.00636463 -0.000620518 -0.0417148
atom	5.628937	15.745423	9.312754	H	0.000000	0.000000	-0.00176381 0.0312145 -0.0311482
atom	15.303791	2.408536	5.783143	H	0.000000	0.000000	0.0106822 0.0326295 -0.0122244
atom	11.329409	3.654161	7.259854	H	0.000000	0.000000	0.0128547 0.0486145 0.0507181
atom	10.268906	3.494193	1.905044	H	0.000000	0.000000	0.0298788 -0.0217013 0.00515222
atom	7.488476	9.184258	6.093568	H	0.000000	0.000000	-0.0326961 0.00677623 0.00253972
atom	7.554370	1.683048	1.736781	H	0.000000	0.000000	0.0417774 -0.0606234 0.0416251
atom	10.013924	14.702064	15.776912	H	0.000000	0.000000	-0.0357084 0.0505619 -0.00433523
atom	13.461199	0.033020	12.375267	H	0.000000	0.000000	-0.0433218 0.0105424 -0.00895013
atom	5.909546	6.980310	7.407709	H	0.000000	0.000000	0.00950251 -0.00888142 0.0621074
atom	7.219066	4.689749	13.292478	H	0.000000	0.000000	0.0210695 0.0244876 0.0126416
atom	8.412751	8.153106	12.698499	H	0.000000	0.000000	-0.331296 -0.144719 -0.119738
atom	14.387304	7.091620	4.481040	H	0.000000	0.000000	-0.029821 -0.012466 -0.0384021
atom	7.731090	13.041308	0.539334	H	0.000000	0.000000	0.0102807 0.0336741 0.0391112
atom	3.994304	1.172354	6.436537	H	0.000000	0.000000	-0.0049809 0.0177713 -0.0238597
atom	12.539439	11.895034	6.405277	H	0.000000	0.000000	-0.0376177 0.016992 -0.0238791
atom	2.077878	4.285392	5.282157	H	0.000000	0.000000	-0.0908664 0.05923 -0.0495509
atom	13.572299	9.533376	0.068035	H	0.000000	0.000000	-0.0232188 -0.00770529 0.00228875
atom	11.739910	5.608914	0.890041	H	0.000000	0.000000	-0.0249774 -0.00476257 -0.0131588
atom	15.423945	4.189930	4.961657	H	0.000000	0.000000	-0.0118765 -0.0115536 -0.0199768
atom	5.035753	1.728390	2.257750	H	0.000000	0.000000	-0.0469469 0.000666962 0.0353361
atom	5.954244	4.670516	10.351646	H	0.000000	0.000000	0.0383486 0.0217408 -0.0248792
atom	0.760513	8.195008	7.458667	H	0.000000	0.000000	0.0378225 -0.038874 -0.0162727
atom	3.360261	1.072353	15.782973	H	0.000000	0.000000	0.00620361 -0.0550081 0.0277061
atom	0.598344	9.164608	9.297134	H	0.000000	0.000000	0.00719039 0.00534796 0.0121935
atom	3.624305	0.775529	13.605636	H	0.000000	0.000000	0.00858701 0.00323198 0.0253298
atom	4.400249	14.562292	14.847325	H	0.000000	0.000000	0.0195821 0.000129853 0.0143098
atom	2.702031	8.777474	0.451996	H	0.000000	0.000000	-0.0283915 -0.00400615 -0.0172139
atom	5.849892	8.149450	12.708268	H	0.000000	0.000000	0.00615689 0.021688 -0.0284716
atom	2.057235	14.383587	2.446533	H	0.000000	0.000000	0.0634342 0.0068605 0.0128336
atom	0.595941	4.945176	11.584211	H	0.000000	0.000000	0.000745855 -0.0160417 -0.0236208
atom	9.017622	11.560468	14.864396	H	0.000000	0.000000	0.00250951 -0.093267 -0.0577681
atom	13.076564	0.719276	9.841656	H	0.000000	0.000000	0.0326327 -0.0154328 -0.0416404
atom	15.767077	13.211978	1.602860	H	0.000000	0.000000	0.111679 0.12423 0.281426
atom	3.663075	7.664396	2.382335	H	0.000000	0.000000	0.0572718 -0.0496745 -0.00695685
atom	0.611752	12.294529	10.470497	H	0.000000	0.000000	-0.202218 -0.0348384 0.0661695
atom	8.345211	6.653568	2.461334	H	0.000000	0.000000	-0.030167 -0.0515672 -0.0157876
atom	3.855425	11.188937	3.184539	H	0.000000	0.000000	-0.0140995 -0.00471378 -0.00986409
atom	4.341693	13.624278	7.070292	H	0.000000	0.000000	-0.17498 -0.171734 -0.00181693
atom	15.297181	10.516998	12.654925	H	0.000000	0.000000	-0.0504507 0.0133967 0.000329725
atom	9.377337	11.743174	11.047456	H	0.000000	0.000000	0.028559 0.0304972 -0.00164702
atom	6.281433	0.319554	15.396133	H	0.000000	0.000000	0.0215694 -0.00675999 -0.00703236
atom	10.383748	2.551433	5.746809	H	0.000000	0.000000	-0.0590864 0.029461 -0.0416068
atom	13.410900	12.181604	0.768490	H	0.000000	0.000000	-0.00294983 0.0035988 0.0133224
atom	12.781928	14.833137	3.416121	H	0.000000	0.000000	-0.0168944 -0.00857249 -0.0017532
atom	10.782724	2.325328	12.490568	H	0.000000	0.000000	0.000377831 -0.0244623 -0.0360348
atom	2.963752	2.119653	15.019704	H	0.000000	0.000000	-0.00329412 0.0339649 -0.0339396
atom	3.868699	3.840557	8.561176	H	0.000000	0.000000	-0.00421808 -0.0223222 -0.0352141
atom	2.546126	3.787694	12.954907	H	0.000000	0.000000	0.0243524 0.0138519 -0.0482717
atom	1.717031	12.670572	10.113264	H	0.000000	0.000000	0.259245 0.0962775 -0.0415562
atom	1.752035	7.744527	9.260436	O	0.000000	0.000000	0.0649433 -0.11566 -0.124066
atom	9.703601	9.738943	3.314891	O	0.000000	0.000000	0.0713616 0.0296351 0.0160174
atom	1.354658	9.418305	14.742719	O	0.000000	0.000000	0.0965749 0.00462496 0.113674
atom	9.256269	14.539395	7.033422	O	0.000000	0.000000	-0.0191551 -0.0322126 0.0165509
atom	13.060475	10.079274	8.871671	O	0.000000	0.000000	-0.0628886 0.0517559 0.028248
atom	13.836757	7.518600	6.221730	O	0.000000	0.000000	-0.0228285 -0.0231219 -0.0866273
atom	5.319623	6.965295	5.684488	O	0.000000	0.000000	-0.055399 0.0710603 0.063963
atom	5.211092	10.818889	14.387293	O	0.000000	0.000000	0.0406391 -0.0709381 -0.0729891
atom	8.891612	8.237151	8.397155	O	0.000000	0.000000	-0.135771 0.0150663 -0.111028
atom	8.194265	15.698967	2.943981	O	0.000000	0.000000	-0.028694 0.0227009 -0.0548725
atom	11.200020	10.786019	7.224782	O	0.000000	0.000000	0.0366343 0.0655881 -0.0587407
atom	8.942795	5.382629	13.579499	O	0.000000	0.000000	0.0199274 -0.0801673 -0.00923507
atom	1.782688	11.855392	6.808721	O	0.000000	0.000000	0.038193 -0.0949343 -0.0764011
atom	3.276784	3.252969	5.828063	O	0.000000	0.000000	0.094711 -0.0867426 0.161744
atom	15.346719	4.043682	8.417400	O	0.000000	0.000000	-0.0311688 -0.042657 -0.0594178
atom	10.628602	0.793111	15.394327	O	0.000000	0.000000	-0.00636235 0.00564564 -0.0349381
atom	13.341773	6.186546	0.372360	O	0.000000	0.000000	0.0798503 0.0282449 -0.0488396
atom	4.788943	1.833346	10.184228	O	0.000000	0.000000	0.0471823 -0.00053493 0.0271263
atom	13.604340	13.360868	11.605567	O	0.000000	0.000000	0.037054 0.0798891 -0.0650021
atom	13.184621	10.117807	14.169484	O	0.000000	0.000000	-0.027171 -0.00924725 -0.0453097
atom	3.647572	12.800674	11.337820	O	0.000000	0.000000	-0.0213269 -0.0675642 0.00844889
atom	7.548039	13.324658	11.150112	O	0.000000	0.000000	0.00998036 -0.0613784 0.059743
atom	4.846489	9.551270	10.153441	O	0.000000	0.000000	0.137908 -0.0623086 0.00639226
atom	13.365902	6.983708	10.751697	O	0.000000	0.000000	-0.0337016 -0.127796 -0.0287959
atom	8.080269	1.316461	10.472222	O	0.000000	0.000000	0.0307545 0.0323937 -0.0470102
atom	11.312385	13.613167	11.164840	O	0.000000	0.000000	-0.156319 -0.110917 -0.0214324
atom	6.675311	1.781501	14.289113	O	0.000000	0.000000	-0.0247585 0.0399643 0.0128767
atom	7.243063	5.319497	8.978149	O	0.000000	0.000000	-0.0449781 -0.0569539 0.0535223
atom	11.932016	13.188609	3.715287	O	0.000000	0.000000	0.083828 0.00568251 -0.022948
atom	3.979004	0.320005	3.159738	O	0.000000	0.000000	0.00736881 -0.0313921 -0.0324526
atom	15.128081	12.732933	0.346274	O	0.000000	0.000000	-0.127126 -0.0744527 -0.230308
atom	2.849427	3.667307	1.643130	O	0.000000	0.000000	-0.0697261 0.0682005 -0.108422
atom	15.712356	0.525574	4.078267	O	0.000000	0.000000	-0.00414291 -0.0162717 0.0469136
atom	3.418926	12.306010	1.724368	O	0.000000	0.000000	-0.0746786 0.0278393 0.0429789
atom	14.175440	0.556575	0.647884	O	0.000000	0.000000	-0.0176898 0.00869839 0.0806124
atom	13.845740	14.732437	8.199195	O	0.000000	0.000000	0.0530763 0.0351335 -0.0761785
atom	2.265846	8.411794	3.194854	O	0.000000	0.000000	-0.11971 0.0418212 0.0411891
atom	0.799567	14.379610	13.310612	O	0.000000	0.000000	0.0721014 -0.0434742 0.0250035
atom	0.188721	10.466158	10.703540	O	0.000000	0.000000	-0.00808528 0.112105 0.169664
atom	4.795497	6.780112	12.984685	O	0.000000	0.000000	-0.00385038 -0.0397586 0.0533622
atom	12.015418	4.186931	3.147437	O	0.000000	0.000000	0.104921 -0.0199406 0.0867729
atom	2.635721	15.280980	9.303183	O	0.000000	0.000000	-0.219645 0.0794815 -0.0360519
atom	10.646681	0.957561	10.306421	O	0.000000	0.000000	0.0234733 0.141343 0.0629055
atom	8.692198	4.597090	2.012717	O	0.000000	0.000000	0.00423559 0.0608355 -0.158855
atom	2.353611	4.375349	11.009106	O	0.000000	0.000000	-0.0135598 0.049251 0.0701576
atom	0.284548	2.203212	12.906634	O	0.000000	0.000000	-0.0236576 0.0965306 0.026013
atom	14.522468	10.118322	2.697096	O	0.000000	0.000000	0.00814623 -0.0659095 0.000895888
atom	5.353625	14.796856	7.181550	O	0.000000	0.000000	0.192543 0.144884 -0.0796862
atom	11.472836	1.158029	5.895361	O	0.000000	0.000000	0.0633307 0.0571959 -0.0648339
atom	9.887519	12.628419	0.076924	O	0.000000	0.000000	-0.0335812 -0.0435564 0.0214483
atom	6.733570	3.159635	5.070719	O	0.000000	0.000000	0.0426287 -0.0389786 0.0492338
atom	6.556187	11.056622	5.112815	O	0.000000	0.000000	0.0276867 0.0242106 0.0346697
atom	9.551814	9.108303	12.699541	O	0.000000	0.000000	0.232607 0.340073 -0.0493241
atom	5.802321	7.127590	2.534360	O	0.000000	0.000000	0.0761515 0.0305647 -0.124026
energy		 -19.12949151
charge            0.00000
end
begin
comment AIRSS data using PBE DFT
lattice		15.821940	0.000000	0.000000
lattice		0.000000	15.821940	0.000000
lattice		0.000000	0.000000	15.821940
atom	1.325814	14.175928	0.494818	H	0.000000	0.000000	-0.0143181 -0.0294701 0.00296023
atom	3.192634	8.777500	6.453404	H	0.000000	0.000000	-0.00388542 0.00364716 -0.0573633
atom	8.072034	15.463561	6.679760	H	0.000000	0.000000	0.0184809 0.0096018 -0.0252844
atom	2.847443	4.151557	10.290264	H	0.000000	0.000000	-0.0147892 -0.0099938 0.0108484
atom	9.732793	8.197941	14.289962	H	0.000000	0.000000	-0.00587845 -0.0332274 0.0343555
atom	3.856034	13.014448	2.298181	H	0.000000	0.000000	0.00876092 -0.0501542 0.0054802
atom	10.753166	15.389296	10.333141	H	0.000000	0.000000	0.0514875 0.0263416 -0.0115382
atom	14.835809	12.173245	15.338253	H	0.000000	0.000000	0.0145701 0.0217981 -0.0157375
atom	6.281382	4.219394	8.205932	H	0.000000	0.000000	-0.107478 0.0795 0.0724096
atom	7.286784	10.545333	3.932796	H	0.000000	0.000000	0.0205541 -0.02187 0.0302069
atom	11.097947	7.278891	11.195412	H	0.000000	0.000000	0.0664576 -0.0674544 -0.0137532
atom	2.512292	9.939090	0.902851	H	0.000000	0.000000	0.0486165 0.0449769 0.0302466
atom	12.023819	0.108320	5.424295	H	0.000000	0.000000	-0.0280286 -0.00238982 -0.00504244
atom	0.871634	13.872189	11.877004	H	0.000000	0.000000	0.00580931 -0.058226 0.00738854
atom	10.277124	10.803839	3.666155	H	0.000000	0.000000	-0.0719069 0.00415704 0.0361843
atom	12.793481	1.376865	2.276396	H	0.000000	0.000000	-0.00446047 -0.00883221 0.00491221
atom	7.343861	12.113867	9.938284	H	0.000000	0.000000	-0.0343151 0.00292528 -0.000557565
atom	8.660037	8.273236	11.247644	H	0.000000	0.000000	0.0151444 -0.0398743 0.0108666
atom	10.048066	7.067772	6.588948	H	0.000000	0.000000	0.025448 -0.0375966 -0.0778595
atom	13.334093	7.264204	8.725485	H	0.000000	0.000000	-0.0126301 -0.044086 -0.021903
atom	11.709289	9.616657	6.834896	H	0.000000	0.000000	0.010996 -0.0385239 -0.024602
atom	12.014210	10.953899	3.149625	H	0.000000	0.000000	0.0563914 -0.0527345 0.0557021
atom	7.134110	14.914793	11.089537	H	0.000000	0.000000	-0.0978717 0.0156605 0.0454395