LAMMPS data file via write_data, version 5 Jun 2019, timestep = 400000

6144 atoms
2 atom types

0.0000000000000000e+00 2.3548999999999999e+01 xlo xhi
0.0000000000000000e+00 2.3548999999999999e+01 ylo yhi
-5.7716280415366761e+00 4.2366512501981894e+01 zlo zhi

Masses

1 1.008
2 15.9994

Atoms # atomic

1339 2 3.1067038162133995e+00 4.5688792415022768e+00 -5.1268882677139791e+00 1 0 0
1300 2 2.7206644406641880e+00 2.4638507669138563e+00 -3.8195679610747861e+00 1 0 0
23 2 1.0759555323851564e+00 4.6793797315333476e+00 -3.7344684259477510e+00 0 0 0
5492 1 4.7517229232564473e+00 2.8711123158549796e+00 -2.9585461838870790e+00 1 0 1
1163 2 3.3486217802175142e+00 4.6777408361456576e+00 -2.0845629448586220e+00 1 0 0
285 2 9.0359410753999310e+00 1.1421346027440087e+01 -1.3657296305745792e+00 0 0 0
25 2 1.4193758522873610e+00 3.7089730932858811e+00 -1.6274741499048782e+00 0 0 0
2019 2 4.0241602150664049e+00 2.3950340909124499e+00 -1.6315608322667297e+00 0 1 1
4453 1 2.6797210845792918e+00 4.8095831318418565e+00 -1.3392188639265186e+00 0 0 1
3739 1 5.5889299231509622e+00 1.1746675392217695e+01 -3.8708615019349342e+00 0 -1 1
756 2 1.8806293063241344e+00 5.1160899279137761e-01 -4.8543706297408225e+00 0 0 1
3996 1 1.2235873833585658e+00 4.2860195587501151e+00 -8.3026549171454267e-01 -1 1 1
2155 1 1.0159350579876151e+01 3.9331901921268386e-01 -4.1376480694346682e+00 -1 2 0
4203 1 7.1627146901816046e+00 6.1390730010059871e+00 -5.6306931114794345e+00 -1 -1 0
5907 1 5.5589621297791630e-02 5.5993203559650393e+00 -3.5843343719910754e+00 1 0 1
3592 1 3.5258782915857716e+00 2.0901273140495289e+00 -4.8304314192143405e+00 1 0 -1
757 2 5.7053247650570720e+00 9.7727204359951003e-01 -3.8600073794689216e+00 0 1 1
3 2 9.7254608859546945e+00 1.1299995319180306e+01 -3.6917067966804518e+00 0 -1 0
5216 1 1.6807763738741837e+00 1.0792909239188943e-01 -2.2027230581185897e+00 1 1 1
3424 1 4.7164302052237641e+00 3.9458106694727912e+00 -7.6167495708775146e-01 0 1 1
2719 1 1.0021769609179817e+01 1.1580020612878970e+01 -4.5860415670424075e+00 0 0 0
281 2 5.4255827850995324e+00 4.4915311950679904e+00 -1.0220577739632226e+00 0 0 0
5444 1 2.1523033381630734e+00 1.2933483982920584e+00 -2.9539721813764785e-01 1 0 1
1597 2 2.1187599182346473e+00 1.0269030090613451e+00 -2.1114765985129180e+00 1 1 0
4745 1 6.8583066380777968e-01 3.9953663981882426e+00 -4.3278180493921417e+00 1 1 0
5150 1 1.1975898724574305e+00 3.9426447488021736e+00 -2.9326495117378522e+00 1 0 0
5788 1 5.5466030637012089e+00 7.2936031051438788e-01 -4.4134841194596230e-01 1 1 0
2168 1 3.3879347413145431e+00 3.4898160722898566e+00 -2.1116657980139606e+00 1 1 0
4253 1 4.5985329373822168e+00 2.6052595747172691e-01 -3.4992505200378909e+00 1 0 0
5162 1 3.1684810958845144e+00 5.5195115284970973e+00 -3.0187297133350590e+00 0 0 1
5454 1 3.8670357655404919e+00 1.4999883631524284e+00 -1.2123534843469859e+00 1 1 1
1288 2 5.1733798081084199e+00 3.3587684115128451e+00 -3.6511516375030690e+00 1 0 1
3767 1 2.7293478740578081e-02 6.6768285905804658e+00 -4.7815522468376290e+00 0 1 0
5359 1 4.0935581031594594e+00 1.0124130780273338e+01 -3.1015211136795746e+00 0 1 1
5881 1 7.6191082979292057e-01 5.5548346852119783e+00 -1.8114293966479353e+00 0 -1 1
5861 1 5.7572129747624965e+00 3.8340286246524928e+00 -1.6022359384272997e+00 0 1 0
3156 1 3.3729141366212505e+00 2.0775626317314342e+00 -2.7383392503446022e+00 -1 -1 0
4367 1 2.5217196098606438e+00 1.1634908722787820e+00 -4.7191772656798925e+00 -1 0 1
5382 1 4.3988296547675727e+00 6.0362660142799403e+00 -4.4818408630951376e+00 0 -1 1
6046 1 4.9284536003976731e+00 9.6044624287371168e+00 -4.6616480166605276e+00 0 -1 2
3158 1 5.1976194443582084e+00 4.6136121053774630e+00 -3.4162950049001992e+00 0 0 0
3542 1 8.8715723772185093e+00 5.5374097273247802e+00 -4.9165211217877447e+00 1 1 1
1822 2 1.7970015843613707e-01 2.4089467705972827e+00 -3.5518884345749879e+00 1 1 0
5471 1 1.0563738869739539e-01 5.0195321751917776e-01 -5.6407821516595646e+00 0 2 1
4044 1 9.2278695136248388e+00 4.1822728115171648e+00 -4.4216847968681359e+00 0 2 1
2229 1 3.7682529515260445e-02 1.0905928994512209e+01 -4.7886218496348878e+00 1 -1 1
2984 1 8.3050533865034826e+00 2.2441712117114435e-01 -5.3507272353544080e+00 -1 1 1
1553 2 3.1257981308808658e+00 1.0694951658588929e+01 -8.8384994590821719e-02 0 1 0
4101 1 4.3920957071931639e+00 8.2109406431109093e+00 -3.8854637612094933e-01 1 1 0
1308 2 3.9639735859457947e+00 6.8889435672709629e+00 -5.1395911817138478e+00 0 0 0
282 2 1.1097973622814973e+01 4.6029759003052728e-01 -3.6858749564777114e+00 0 1 0
6069 1 1.1527395899285031e+01 7.5966924995354530e+00 -3.7716620349628336e+00 2 1 0
5441 1 9.0659660485048583e+00 5.8301684213081550e+00 -1.1723941582332733e+00 0 0 1
595 2 1.8644193152344812e+00 2.1098560515435216e+00 2.1161740664732420e-01 0 1 0
2283 1 5.2236259338667752e+00 3.9674114888302130e+00 -4.9752649661559909e+00 1 1 0
5997 1 2.8823965626175498e+00 3.0520714241635010e+00 -1.3448619266842510e-01 0 2 1
541 2 5.8780004986760330e+00 7.2935436366070072e-01 -1.3682883188634039e+00 0 1 0
800 2 6.9323928498264165e+00 5.2692836463036308e+00 -5.3182277656375474e+00 0 1 0
3840 1 7.8658070451975686e+00 2.3494709592219296e+00 -1.9855022267035682e+00 0 1 0
4032 1 7.3437415657319818e+00 4.3455101619121592e+00 -1.8362880843330016e+00 0 0 0
2044 2 9.2496084063834729e+00 1.9283293455466313e+00 -2.7521698238817653e+00 1 1 1
3340 1 7.6124814557972735e+00 5.2381617248021062e+00 -3.5119412861946007e+00 0 0 1
1080 2 8.3612966465058740e+00 4.0045291096503135e+00 -3.4102081971414311e-01 0 0 0
1757 2 9.8953050387506831e+00 6.3497839574124040e+00 -1.7031296041249284e+00 1 0 1
808 2 1.0152448102469803e+01 2.2845552102453985e+00 -5.1316889823031051e+00 0 1 0
18 2 9.2504230826588696e+00 4.2742619360787710e+00 -3.3438996846870084e+00 0 0 0
2927 1 1.0950001443129118e+01 2.2007766549181023e+00 -2.5896865273922209e-02 0 1 0
1009 2 6.8148328707284760e+00 2.1067485767793679e+00 1.4184527061727170e-01 -1 1 1
3805 1 6.2564110864498224e+00 2.0473348072217474e+00 -1.9473713772236358e+00 1 0 0
983 2 6.8484592443038315e+00 2.8341988818627919e+00 -2.1162984994191443e+00 0 1 1
111 2 1.0366516988385026e+01 3.5897054634166308e+00 -1.2478155268494078e+00 0 0 0
2274 1 9.3811952738289897e+00 4.0834054017147423e+00 -5.6148123320611543e-01 1 1 0
4898 1 1.8622007901109983e+00 1.7461136920287621e+00 -2.8306339519146868e+00 3 0 0
4403 1 6.5432069463791533e+00 5.5499379538863201e+00 -4.4314026681592962e+00 0 1 1
4577 1 1.0144833694147753e+01 9.5712038122377017e+00 -2.2888297840970484e+00 1 -2 0
5723 1 5.7762427595320869e+00 2.3310222570083301e+00 2.2644514844265284e-01 0 2 0
5340 1 1.0641221830524227e+01 1.6493071968800479e+00 -5.7513933583022432e+00 0 1 0
552 2 7.9308834971234665e+00 1.0023251028058683e-01 -1.6591385726253103e+00 0 0 0
279 2 7.0263149167565127e+00 5.2013438565018557e+00 -2.5778719402497137e+00 0 0 0
3407 1 6.1188666172076376e+00 2.7941053806479963e+00 -3.5082401629343183e+00 -1 0 1
3473 1 6.8099413754696396e+00 2.1942445598101168e+00 -4.8848403677494456e+00 1 1 0
5455 1 8.3373856664138160e+00 1.4246468197692308e+00 -3.1598189733319808e+00 1 0 0
1550 2 7.2712320945902089e+00 2.8595696264272044e+00 -4.5304369714948729e+00 1 1 0
3035 1 8.6245412284936869e+00 3.8138563652398845e+00 -2.9270811563498476e+00 -1 -1 1
4443 1 1.1121507468187012e+01 8.1077134913749713e+00 -5.6163861556331902e+00 -1 0 1
1519 2 1.1418479355378809e+01 1.0519261816799357e+00 -1.3817171021957471e+00 0 0 1
1649 2 1.0460898739409501e+01 9.2485472817161529e+00 -4.3249419312476345e-01 0 0 0
2582 1 1.0068746125023559e+01 4.2925908696417654e+00 -2.4094599919193391e+00 -2 0 0
4212 1 9.6231518458553680e+00 1.2924244813291581e+00 -2.1439509859779315e+00 0 0 0
3265 1 2.2843356760466493e+00 8.2498053170050838e+00 -5.3877251841990468e+00 -1 0 1
4696 1 1.0273976255780854e+01 5.7949726021403158e+00 -2.3906095604990623e+00 1 -1 0
5201 1 8.5533350706481119e+00 5.7291968300578622e-01 -9.6575831621133101e-01 -1 1 0
3757 1 4.3799820548298900e+00 7.9999182001720266e+00 -4.3940918491649708e+00 0 0 0
1611 2 3.8521113527134854e+00 6.6017996116145572e-01 7.6216483271492663e-02 1 1 0
5906 1 7.6837343980598698e+00 8.1547718656661924e-02 -3.8980989910186681e+00 0 2 0
4964 1 2.0382656533161372e+00 6.0850261222335851e+00 -4.1576807712137054e+00 2 0 0
4063 1 1.0710842048113255e+01 3.2752251324216064e+00 -5.3350092544339986e+00 -2 2 2
1605 2 1.9027534596817279e+00 1.1078478034354202e+01 -2.5168415212407611e+00 0 0 0
2966 1 1.1733247247754134e+01 7.0995416674433554e-01 -2.4740420569389401e+00 -1 1 0
2159 1 7.2775011418058746e+00 1.0929322799016251e+01 -3.9717869257294174e+00 2 -1 0
2987 1 3.6592627157087548e-01 8.9092261970196791e+00 -2.2901539538377236e+00 0 0 0
1230 2 1.1747446998855921e+01 2.9995105841587222e+00 -3.3033171758223636e+00 0 0 1
5475 1 1.0484570284630436e+01 9.9568630067820703e+00 -5.3629002539860293e+00 -1 -1 0
3567 1 1.1166428497013081e+01 4.0420388203106477e+00 -1.0727167599679008e+00 0 2 0
5103 1 5.3039195746381660e+00 8.0276805538480307e+00 -2.4394696925041681e+00 1 0 1
206 2 6.1105330866627279e+00 7.2269233439411806e+00 -1.8395315235568024e+00 0 0 1
4735 1 1.0827940049417196e+01 1.5571165631870483e+00 -3.6171763267743944e+00 1 1 0
4868 1 3.1946587076999489e+00 6.8651356347711090e+00 -4.4549865662977606e+00 0 0 0
543 2 4.8437932628231634e-01 8.1268969404317861e+00 -2.7896424600665903e+00 0 0 0
5516 1 3.9172616306802888e+00 7.7118831652902697e+00 -3.0956757230680250e+00 1 2 1
515 2 4.9680524360229903e+00 5.5833468614110009e+00 -3.2822687151327061e+00 0 0 1
2793 1 2.0969453962730262e+00 7.4805541181659576e+00 -3.2444728624443360e+00 -1 0 0
2874 1 1.9444765301025071e+00 9.0015033672522211e+00 -2.3504381758127884e+00 -1 2 0
1352 2 1.0791722542370810e+00 1.1201675809671503e+01 -4.8242981783644847e+00 1 0 0
1350 2 4.0723257751752753e+00 6.7695356564856795e+00 -7.9962022051954396e-01 1 0 0
5157 1 2.9077266613758446e+00 7.8110405614671166e+00 -1.5099200286153902e+00 1 0 1
3063 1 6.7638576375707871e+00 9.5708033251120810e+00 -4.5266235665458874e+00 -1 0 1
5206 1 1.3843730298483152e+00 8.6574212905019259e+00 7.1504390076919222e-02 2 -1 0
2827 1 2.1768549267963797e+00 1.1134747351823000e+01 -3.5320211240071933e+00 1 -1 1
2384 1 4.0385061216101352e+00 1.0977248593401448e+01 -4.9193669331257723e+00 0 0 0
4476 1 9.6319135942933869e+00 9.1307139069553340e+00 -4.2865143947893367e+00 2 -1 1
562 2 3.5682198573935944e+00 1.0481416022003765e+01 -4.1680400781283833e+00 0 0 0
1018 2 9.2330061348685071e+00 1.2220836320816162e+00 9.9114531599999722e-03 0 1 1
477 2 1.8382963331024422e+00 8.7273732024150998e+00 -4.6172105971524680e+00 0 0 1
788 2 2.5972953627791657e+00 6.6078119615264468e+00 -3.4063742927525111e+00 0 0 0
545 2 4.5204522776846980e+00 1.0668695728107190e+01 -2.1679945874198698e+00 0 0 0
1340 2 2.6909902563131651e+00 8.7826487546853578e+00 -1.8659362165003701e+00 0 0 0
5882 1 1.0117298281439873e+00 1.1378224360608408e+01 -2.5060251465707841e+00 0 0 0
3238 1 8.3560325855168536e+00 7.1361013446959722e+00 -5.3132150441672668e+00 1 1 0
1860 2 5.2548492604231123e-01 9.9105477820269634e+00 -6.2353738127228464e-01 1 0 0
556 2 4.9653785000055848e+00 8.9100384207492720e+00 -1.7715049558211149e-01 0 0 0
1818 2 8.1452119923253683e+00 8.0792773762290828e+00 -2.4371754504741974e+00 0 1 0
1513 2 4.5023563760915906e+00 8.4306862450100013e+00 -3.0186537458995186e+00 0 0 1
2672 1 8.1875057437125776e+00 2.7685275811617247e+00 -4.7160041992296087e+00 -1 -1 0
1917 2 4.1708852587716176e+00 1.7733135927135490e+00 -5.5420468246419050e+00 1 1 0
2433 1 4.1256682390289070e+00 7.0560232223647814e+00 -1.6570615156480812e+00 0 -1 0
3736 1 3.8440340752932927e+00 1.0023135258146382e+01 -1.8204159923885124e+00 0 -1 0
5239 1 4.5792766351018601e+00 5.7403610583264708e+00 -2.3264650230268402e+00 1 1 0
5635 1 1.1265493421296144e+01 7.5452495197809029e+00 -3.5273739990469899e-01 1 2 0
585 2 1.5665853512029271e+00 6.2972742738721488e+00 -5.4914203703980480e+00 0 0 0
745 2 5.3698873972106931e+00 9.2347215527181383e+00 -5.4106670773990384e+00 1 0 1
4301 1 9.8680469871408238e+00 8.4955763937062834e+00 -1.1779274990784927e-01 2 1 1
3287 1 4.1035594777417668e+00 1.1493537140253078e+01 -1.8259844624958537e+00 0 0 1
4527 1 2.5290466871021433e+00 3.2753984947188237e+00 -4.2135714290632604e+00 1 -3 1
6105 1 7.3910630696825297e-01 8.2904858122488871e+00 -3.7783186795970707e+00 0 2 1
4989 1 6.8047840430012680e+00 9.1778925901146859e+00 -1.0621772041028086e+00 -1 0 0
3086 1 1.0643777793571054e+01 2.9025492426029271e+00 -3.1461032238711963e+00 1 1 -1
5358 1 8.5888968319710486e+00 8.1047973987198869e+00 -1.5106273661300893e+00 2 0 0
1343 2 1.1335468367475844e+01 5.9015465624795347e+00 -3.6800972334217010e+00 0 0 0
1259 2 6.8840267470028573e+00 1.0144836666814445e+01 -9.8935520056580639e-01 0 0 1
574 2 7.2961054601358759e+00 9.9654511184607255e+00 -3.7633058545252362e+00 0 0 0
4054 1 1.3926281582622382e+00 9.2940603026057911e+00 -5.2828290230961299e+00 0 0 1
5368 1 1.0955365904900983e+01 1.0522789961175157e+01 -3.1785866226149091e+00 0 0 1
6132 1 6.3664536499310893e+00 7.4521701696346883e+00 -5.2530645293361289e+00 0 0 1
5207 1 8.5119913758171197e+00 6.9589166754487364e+00 -3.3504048818460901e+00 1 2 0
3763 1 1.0729688873848022e+00 7.6278014780521808e-01 -4.4158250626949407e+00 0 -1 0
2130 1 6.4042227799257869e+00 1.1655706131654826e+01 -5.8549298704953667e-01 2 -1 0
2579 1 7.0929917263228015e+00 7.7374397687802796e+00 -2.2610771947240726e+00 1 0 0
3863 1 1.2669378306255075e+00 1.0664146668651211e+01 -8.7897131362651315e-01 1 0 0
823 2 1.0081134007842380e+01 8.7724213847481085e+00 -2.7191902714755942e+00 0 1 0
4708 1 6.5658208555851605e+00 6.1451730423574684e+00 -2.6272011481909492e+00 0 1 0
4524 1 7.0976745731943094e+00 7.4888710587660121e+00 -3.8587929817408213e+00 1 -1 1
3178 1 2.4595216147623762e+00 4.9707485349621301e+00 -5.6721000379779918e+00 -1 2 0
6129 1 7.8052015599287099e+00 9.0997267583196475e+00 -2.9615591436253994e+00 2 1 1
300 2 8.7858052642845852e+00 6.6113534324357319e+00 -4.4100803768859391e+00 0 0 0
3470 1 1.0799657271222081e+01 8.2141125287041508e+00 -2.4370753443236204e+00 -1 1 1
3538 1 4.9070297642145908e+00 6.2222613679342915e+00 -9.3928499283346412e-01 1 0 1
3386 1 3.8376205037696192e+00 5.1470542520533940e+00 -5.5611869305937196e+00 0 -1 1
4659 1 2.9264684848381979e+00 9.4993495437232980e+00 -4.3682678717496106e+00 1 2 0
5099 1 9.5649288178815990e+00 1.1524830782800960e+01 -2.3084756177163994e+00 1 1 0
2352 1 1.3784277823895472e+00 5.6798039129964542e+00 7.4705944417498671e-02 -1 -1 0
3098 1 7.7584289323664333e+00 1.0038834264177170e+01 -6.4607072524854292e-01 0 0 0
5825 1 6.3192123437777941e+00 7.1863953809634591e+00 -7.2826808868157844e-01 0 1 0
33 2 6.3599749434774937e+00 7.2720350917523477e+00 -4.3080044139070122e+00 0 -1 0
5283 1 3.1771173877434444e+00 9.6160155123467685e+00 -6.5376089646442814e-02 0 2 0
3951 1 1.0026670539385574e+01 9.3628232926320876e-01 -3.0656914914019673e-01 -1 1 0
2731 1 5.0965247165087968e+00 4.0966960516333299e-02 -1.7695416924765528e+00 -1 -1 0
5765 1 7.7544680547440796e+00 3.1517172148617822e+00 1.1004386278015588e-02 1 1 0
20 2 8.2895604771729250e+00 8.1745478088807779e+00 1.2984554454404673e-01 0 1 0
733 2 9.6527818472557634e+00 9.2598746164858579e+00 -5.1705858796858495e+00 0 0 1
238 2 8.3808008696371061e+00 5.4345528837725721e-01 -4.3368601571754750e+00 0 0 1
2100 1 5.0495637017125139e+00 1.4157882456170878e+00 -4.7518605510389982e+00 0 1 0
4829 1 1.1267074553104637e+01 5.2570550903443563e+00 -4.3790765561647849e+00 0 0 0
1284 2 6.6188737276900234e-01 6.2365070289974298e+00 -1.2046385541847142e+00 1 0 1
2519 1 1.1940549021636837e+00 2.7600864148065116e+00 -1.3852722007067531e+00 0 1 0
4551 1 1.1615598361440144e+01 1.1041725101979463e+01 -9.2817664700550129e-01 1 0 1
5632 1 7.7305164416272714e+00 4.8039480642804335e+00 -4.3513107575840504e-01 1 0 0
2808 1 7.8571270111553124e+00 7.1409885942881139e+00 1.5330050512127080e-01 0 1 1
5982 1 4.4022678535699150e-01 3.1213367072167659e+00 1.7918777730223745e-01 1 2 1
3971 1 4.7185679614540819e+00 9.5207213793338781e+00 -9.8841467158234142e-01 0 1 1
4557 1 1.1764376875086114e+01 5.5195117176820183e+00 1.2823452010732517e-01 -1 -1 1
2035 2 9.4205173009184069e+00 4.6129501177991195e+00 -5.7259708057647600e+00 0 1 1
821 2 3.2780309680329029e+00 4.3462403119138040e+00 2.8275966634281922e+00 0 1 0
1068 2 1.5968491497060098e+00 3.6461594191134532e+00 4.5239741634582753e+00 1 0 0
519 2 1.0172046521587315e+00 5.0273037120168667e+00 2.3167245912298622e+00 0 0 1
491 2 1.6030272974262001e+00 2.7951020562692950e+00 2.2394897890213148e+00 0 0 1
3239 1 3.3478280626258226e+00 4.5045990709439598e+00 4.2495370966819976e+00 0 1 1
1626 2 8.5146194385408283e+00 2.8684562263910801e-01 6.0692182876609433e+00 0 1 0
589 2 3.7700368177866128e+00 2.4926325759093593e+00 3.6090391168554135e+00 1 0 0
4633 1 5.1807320253415599e+00 3.3014233703293122e-01 1.8157419750691206e+00 1 -1 0
861 2 3.7362786081366846e+00 4.7163011866395230e+00 5.0579332032909612e+00 0 1 0
3249 1 8.4162783610306924e-01 4.2983139982179450e+00 1.7587500317164881e+00 0 1 0
3128 1 2.2662157227403043e-01 4.8876743295034810e+00 3.3607079884714111e+00 0 0 1
3745 1 1.5331004356790356e+00 1.8901560786447063e+00 1.1012374473230686e+00 2 2 0
1897 2 4.5101971230906637e+00 6.0168665286817573e+00 1.3935649937855521e+00 0 0 0
4538 1 3.6366586619924579e+00 9.8712639624846432e-01 1.0101334543630687e+00 1 0 0
2453 1 6.3326008099264763e+00 5.0661147352722180e+00 2.8532786582305665e+00 0 3 0
2284 1 1.6694449819283950e+00 3.2092034943259944e+00 3.4579967112425987e+00 -1 -1 1
1085 2 9.3186062909880825e+00 3.7581869875760660e-01 2.2232914503001853e+00 0 0 0
576 2 5.1688602544529658e+00 1.4071692699813343e+00 2.0631725003630903e+00 0 1 0
2932 1 7.7572819849252967e+00 1.1271950288227965e+01 5.7844164009644050e+00 0 1 0
3466 1 3.7209214188507729e+00 1.1124237133230986e+01 2.6474607499825726e+00 0 0 1
1816 2 5.6744109393999418e+00 4.0135888474589070e+00 3.7883293564980285e+00 1 1 0
3540 1 2.9786951113518467e-01 9.0693120130005411e+00 5.3615756555567913e+00 1 -2 0
3907 1 5.1147898273831407e+00 4.1533060509942308e+00 2.9356155820017182e+00 -1 1 0
5404 1 4.4529669246460946e-01 2.1917184222611383e-01 8.8592277745966808e-01 1 0 0
1642 2 1.1762014484002169e+01 9.1657676872571976e+00 1.7533043510621642e+00 0 0 0
5886 1 4.5511256623193846e-01 5.7405502080649509e+00 1.5072248108822439e+00 0 1 0
2708 1 2.7399554168140328e+00 1.0141830557481364e+00 5.2186193386087005e+00 0 1 1
4039 1 1.1701611878876406e+01 1.0086512094811784e+01 1.6493949398033774e+00 1 1 0
6071 1 2.9515147087728510e+00 2.0788185387582181e+00 3.6630440065734291e+00 2 2 1
5104 1 6.7742564501890561e+00 6.7821446963030763e+00 2.1321060461648367e+00 2 1 1
4081 1 7.5906712314158291e+00 1.0730779054087876e+01 4.1431448644572217e+00 0 0 1
3535 1 5.2953113851939051e+00 6.2315332831352466e-01 4.1184848023138176e+00 0 1 0
4190 1 9.1860614314900371e+00 1.1682105294047426e+01 3.4707861108571212e+00 0 0 1
3612 1 4.2372128023783233e+00 1.7186601779858459e+00 2.7397904323076574e+00 1 1 -1
1303 2 1.3681689756162221e-01 5.9288210039596567e-01 1.9807703440300868e+00 1 0 0
5891 1 5.0964977056387148e+00 3.5405181501481393e+00 7.8928526172881064e-01 1 1 0
5060 1 1.2706177138418089e+00 8.5779502997040047e-01 4.6498976979514417e+00 3 0 1
1596 2 1.0294110449021121e+01 1.1545980060050681e+01 7.0641532303354815e-01 0 0 0
3647 1 4.7346683909319109e-01 6.6330632457018694e+00 5.2947621928887987e+00 0 1 0
5399 1 3.5238502727920973e+00 5.1483746496407861e+00 2.4610246051672142e+00 0 1 1
1244 2 1.1602264416020542e+01 2.4951440671097092e+00 7.7649192796506394e-01 0 0 1
2820 1 5.5105326631659963e+00 2.5133254481698155e+00 4.6292635569448990e+00 0 0 0
5186 1 1.1143499280701237e+01 5.3808385066561595e+00 1.5297614424814405e+00 0 1 0
3476 1 7.9535194965413094e+00 3.6682890259984915e+00 3.4263533352673168e+00 -1 1 0
4143 1 3.4940667507920002e+00 1.0450315396556228e+01 9.7700525015651785e-01 2 0 0
3193 1 6.5622037458659648e+00 6.4543008204155212e+00 4.7706881111596999e+00 0 2 0
3478 1 1.0819223350479248e+01 1.1309947929655596e+01 5.3608992309255630e+00 1 1 1
1889 2 1.1395183284798117e+01 4.2824510774916211e+00 2.6139897639104639e+00 1 1 0
5182 1 8.9261867035731512e+00 3.2040224934800654e+00 1.2141776128060027e+00 0 1 0
3609 1 3.4305076802486960e+00 5.1684306103021020e+00 5.8945890354868560e+00 0 2 0
2626 1 9.8871174853324337e+00 5.9105860923264260e+00 5.2725331496823937e+00 -2 0 0
2585 1 9.7125763460582260e+00 8.3549384133526967e+00 2.3484986656167255e+00 1 1 0
1016 2 2.4896715243706069e-02 4.1028607951371470e+00 4.2804211550174820e-01 1 1 1
3089 1 3.2696544569961596e+00 3.1336463785613522e-01 2.5895829284566894e+00 -1 2 1
5001 1 6.9643730620206785e+00 6.8904615612140434e+00 6.2198674974463390e+00 -1 1 1
2356 1 9.5463830793898730e+00 8.7032324149685991e-01 3.2453097501904651e+00 -1 1 2
4135 1 3.3207378987610845e+00 7.3833901172415137e+00 3.2481479919030694e+00 2 0 0
1356 2 1.0927265583960297e+01 5.1272094283317786e+00 5.9560169769688187e-01 0 0 0
3113 1 1.1376008913596172e-01 1.9299006496190281e+00 2.7865145585611764e+00 1 2 0
1329 2 7.2349483371351813e+00 2.1932930606243936e-01 3.5536362049647696e+00 0 0 0
1052 2 7.2216865418869904e+00 2.4354412245505594e+00 2.5423154731177533e+00 1 0 0
1115 2 8.3002029465647684e+00 4.2376225978604509e+00 4.1605858100828250e+00 0 0 0
51 2 8.6309721339388723e+00 5.1567661037365164e+00 2.0393925289363803e+00 0 0 0
838 2 9.9877021631186675e+00 5.8407930415788600e+00 4.1347988667324582e+00 0 1 0
2078 1 9.4053008984209789e+00 2.7409312623674649e+00 2.4974086562107143e+00 1 0 0
4739 1 3.7215122813779999e-01 7.9364040717575515e+00 4.0427386572604576e+00 1 0 0
1073 2 9.7464677659586538e+00 3.1355351758820018e+00 1.7405730202945344e+00 0 0 0
857 2 9.1496425437606010e+00 1.8746798756727598e+00 4.1002003667969049e+00 0 1 0
2514 1 6.4106119617158583e+00 1.9746233321545961e+00 2.2152949709290990e+00 1 0 1
253 2 7.3167718208629733e+00 5.9921446522318469e+00 3.9747646807169890e-01 0 0 1
4719 1 9.0186795652674849e+00 4.3614964505779446e+00 1.8850617055231265e+00 2 -1 0
2400 1 8.4332928097445219e+00 1.9889279725590554e+00 3.4849970092487421e+00 0 -1 0
4155 1 4.5732640378442824e-02 1.0763703918613391e+01 6.1102850026535300e+00 1 1 0
4080 1 6.8516920581239402e+00 3.1831900207779165e+00 1.8084082986503613e+00 1 3 1
2739 1 9.2213888888705000e+00 1.2018665105135076e+00 4.9063357459996073e+00 1 1 0
2310 1 9.5111785956386203e+00 1.1258560578643891e+01 1.1547311324820040e+00 -1 1 0
4589 1 8.9332543294426685e+00 7.6450579418101281e+00 7.1200038603586258e-01 2 1 0
2246 1 8.0142637073098282e+00 5.8845109627868410e+00 1.1688482150933668e+00 -1 1 1
1887 2 5.8060481032953115e+00 3.7805116484582233e+00 1.4405179422533543e+00 1 1 0
5341 1 1.0801193568333323e+01 1.9095666851915112e+00 3.2769190399642163e+00 1 0 0
5481 1 8.0010652645382567e+00 3.6606363230526830e+00 5.5912140064078439e+00 2 0 1
1306 2 6.0624553086865491e+00 1.7450319365205968e+00 4.7326318694447931e+00 1 0 0
1920 2 2.3069166723689110e+00 7.0975882600872875e-01 4.3433652197584731e+00 1 1 0
5338 1 4.7358335940802920e+00 6.9712226168709197e+00 1.4153357050045194e+00 2 1 1
298 2 1.0682247949822456e+01 4.4145940120807442e-02 5.0730357672174389e+00 0 1 0
6065 1 1.0877247364490600e+01 4.1969334734965695e+00 3.4145414355398742e+00 0 0 2
1092 2 1.1258599437543324e+01 1.0605993585363521e+01 5.6315142831042362e+00 0 0 0
1853 2 1.0577261055886392e+01 3.8214261343511216e+00 5.3147223950145026e+00 0 1 0
5191 1 9.2900193771280755e+00 4.5131527485160516e+00 4.0573468425611292e+00 0 1 -1
4499 1 4.6800707130483259e+00 4.0934933546871370e+00 4.2656459762074519e+00 1 0 1
4851 1 9.1598604065228884e+00 1.1558602780132345e+00 9.1835550761363027e-01 -1 0 1
1082 2 1.3627735510276262e+00 6.0676744894635997e+00 4.5661579491592263e+00 1 -1 0
1315 2 4.0697904944627092e+00 6.6669581201792347e+00 3.7124685666391990e+00 1 0 0
1803 2 6.4843292102471057e+00 6.0103922189021963e+00 2.8527985480587805e+00 0 1 0
5665 1 2.2147072190278387e+00 7.2265083575218014e+00 1.6091056808892574e+00 1 1 0
4493 1 9.8646345946412790e+00 3.1179127473854220e+00 5.4029803878405094e+00 1 -1 0
4168 1 4.4805549882420816e+00 7.0280330036942900e+00 4.7370663185559678e+00 -1 -1 0
3321 1 1.0932365422191410e+01 1.0883076599108401e+01 2.4330535276844536e+00 -1 -1 0
929 2 1.8181593433442302e+00 1.1131470236632191e+01 4.0787230141230957e+00 0 0 0
3074 1 1.1549643644038605e+01 3.7357293996488647e+00 1.0383493287800913e+00 0 0 0
580 2 6.0910858558193652e+00 4.6899467732191642e+00 5.9336834345629779e+00 0 0 0
3310 1 2.2933422536686523e+00 4.4065253378612956e+00 2.4779333356906026e+00 0 0 0
3801 1 1.4449393497998915e+00 1.0468867062868927e+01 4.9618757074993720e+00 2 0 0
846 2 3.5879044607564299e+00 3.5024200202672664e+00 5.0397534214513939e-01 0 1 0
4532 1 4.0601374782793282e+00 3.1697228193503535e+00 5.7752479242011727e+00 -1 -1 1
6139 1 1.0914141271114483e+01 9.8083132876543910e+00 5.2989598834214533e+00 0 0 1
5622 1 8.4999224188874436e+00 8.7964713286268936e-01 2.2913403996660442e+00 1 0 1
3822 1 2.3139464947363027e+00 7.3295217501359931e+00 5.3350736637556579e+00 -1 0 0
3484 1 1.5892423684376438e+00 6.1416912078262618e+00 3.6613836150395915e+00 -2 -1 0
2638 1 2.9947248474468364e+00 9.0043828882693653e+00 1.6414836423610275e+00 1 1 0
1644 2 2.6247906680930395e+00 6.3690574910838316e-01 1.9776056499316885e+00 1 1 0
5009 1 3.5662026521795358e+00 5.8847383106309712e+00 4.0551707229073912e+00 1 -1 2
4743 1 4.9302088745187138e+00 1.0727007969932139e+01 2.0423159410666498e+00 1 -1 0
3832 1 5.9707478685971997e+00 6.2964401577497258e+00 3.5176075727665417e+00 0 2 0
1319 2 3.7405690904657249e+00 9.6086010817237515e+00 2.1989377292447054e+00 0 1 0
4940 1 6.4343962574896754e+00 9.2328743912804079e+00 4.2458150638645957e+00 -1 -2 1
5318 1 6.8806750774283765e-01 9.5396223958658268e+00 1.8884547505791538e+00 0 0 0
5303 1 5.1348536437276771e+00 6.1225409918332616e+00 5.9743538532420004e+00 0 -1 0
4415 1 1.8396705658584578e+00 1.1570760339908874e+01 6.2997359352662663e-01 -1 0 1
1045 2 2.1845739852885826e+00 7.1434534160049603e+00 2.5712808125385909e+00 1 -1 0
3332 1 4.4580698586997958e+00 9.0609351002665122e+00 1.9512657820319657e+00 2 0 0
787 2 8.1210564326498638e+00 1.0805782004548806e+01 1.1844887084587690e+00 0 0 0
3274 1 4.8657686585770472e+00 5.4602643824749251e+00 6.3913858461552220e-01 0 2 0
2420 1 1.0509370109155132e+01 8.9997599805279531e+00 3.3153900550293880e+00 0 -1 1
5596 1 1.3562138835506259e+00 1.0590804136154679e+01 2.9449205968747645e+00 1 1 1
513 2 1.4338078043116691e+00 1.0516351273590713e+01 1.8787557883026063e+00 0 0 1
538 2 5.6748426209166007e+00 1.0887375068632570e+01 1.4396227042410379e+00 0 0 0
899 2 4.7539442705368691e+00 1.0726233424905425e+01 4.1531808454586088e+00 0 1 0
602 2 3.1712559686800281e+00 8.9295522534620595e+00 4.3202725468966072e+00 0 0 0
3777 1 3.0812440749475170e+00 9.3723642250144916e+00 5.3044943709224821e+00 0 0 1
3545 1 6.7134812964537067e+00 9.6271304308575054e+00 3.1337996541795423e+00 -2 0 0
1036 2 5.7991791752979820e+00 8.4922996628048839e+00 4.1383413710563985e+00 1 0 0
1158 2 8.2238200875644925e+00 2.8236019091191102e+00 5.9859856775611533e+00 0 0 0
624 2 7.0797188124517807e-01 8.9346913301473592e+00 4.2404850187342351e+00 0 0 0
3441 1 6.5428410792245471e+00 2.1093186602645746e+00 3.7672335800362777e+00 -1 1 0
1127 2 2.3479954284095759e+00 7.7853431557267889e+00 6.1502980690921625e+00 1 0 0
5913 1 1.2305220302794599e+00 7.6801443705004901e+00 2.8202629408105899e+00 1 -2 1
5133 1 2.2739213653847661e+00 8.7612604639444687e+00 3.9426553883849937e+00 -1 0 1
2255 1 5.0652768642654786e+00 8.1966348908436579e+00 4.7834166791669936e+00 0 -1 1
124 2 3.4982678160942511e+00 2.2682381574156918e+00 5.8821210771521049e+00 1 0 0
2568 1 2.5448119693839173e+00 2.8172995873597735e+00 1.8988219250748717e+00 0 -1 1
4548 1 8.2617335620198773e+00 9.1236295677393020e+00 4.7297436225394733e+00 0 2 1
2016 2 1.1511381626250689e+01 2.6019489234856302e-01 1.0541825124629511e+00 0 1 1
1321 2 8.3627891109695298e+00 7.0032908762311603e+00 3.3441518472654828e+00 0 0 0
4360 1 6.1899328353913683e+00 4.5555771605675179e+00 4.9176030397629535e+00 1 1 1
4924 1 7.6427680765429722e+00 2.2734168671580197e+00 5.4836790505232660e+00 1 0 0
1406 2 7.1549841335891609e+00 6.9717926246844009e+00 5.3404165676568081e+00 0 0 0
78 2 6.5482715749657023e+00 1.1201315301634137e+01 5.3187567974246601e+00 0 0 0
3657 1 1.0815885147155686e+01 7.4906567864349025e+00 1.4701431269238903e+00 1 0 0
5911 1 9.9159062878475392e+00 8.9801319191664248e+00 4.5662756954808899e+00 0 0 1
6140 1 7.1889423215206900e+00 1.2665295739830695e+00 4.2898526985894492e-01 1 1 1
3483 1 1.1074469137150695e+01 6.9518457711989159e+00 5.4915152407127152e+00 3 -1 0
286 2 7.5678412739051097e+00 1.0105608244817216e+01 3.3281732612715320e+00 0 0 0
4609 1 1.1299458126618797e+01 6.4357901561659441e+00 3.3845374574611196e+00 0 -1 1
1040 2 1.1654456420105449e+01 1.4939941575306590e+00 3.0384279505445253e+00 1 0 0
2951 1 8.7188084541584256e+00 9.6714963745234996e+00 2.6528371865576741e+00 2 0 1
6030 1 7.4319992003828927e+00 1.0560590972653348e+01 1.7832264683318986e+00 0 0 1
3665 1 1.1282747235969921e+01 5.9211671072791205e-01 1.9958327114219516e+00 0 3 1
1592 2 1.0853413648590514e+01 8.7014410639649835e+00 4.2286033660905282e+00 0 0 0
4682 1 5.7541644760591346e+00 7.9994730350827625e+00 9.2816033529063269e-01 1 0 0
2703 1 3.0020402087193467e+00 4.2901104092082631e+00 7.4687643309997753e-01 0 1 -1
3027 1 8.1425657708740804e+00 7.4231357038978496e+00 2.3868175282597175e+00 -2 -1 1
1054 2 1.0759300567860608e+01 1.1303984860896112e+01 3.3461940051211645e+00 1 -1 0
850 2 1.8953645816109861e+00 1.0147458344722059e+01 6.2220587309862303e+00 0 1 0
328 2 9.5985950625206087e+00 9.3849207112106434e+00 2.2422387889608437e+00 0 0 0
5406 1 6.8319959595097481e+00 9.0516931243370546e+00 1.4127202040686440e+00 1 2 0
2170 1 8.4939762792955598e-01 3.0806287999113438e+00 4.4427880484711970e+00 -1 1 0