LAMMPS data file via write_data, version 5 Jun 2019, timestep = 10000

6144 atoms
2 atom types

0.0000000000000000e+00 2.0700900000000001e+01 xlo xhi
0.0000000000000000e+00 2.0700900000000001e+01 ylo yhi
-2.6876303403392434e+00 3.9282514800781087e+01 zlo zhi

Masses

1 1.008
2 15.9994

Atoms # atomic

1 2 4.8214731381644063e+00 2.8945186637777400e+00 6.9435437547119161e-01 0 0 0
787 2 3.5567089631154687e+00 8.2167138112958715e-01 3.3594567543056453e-02 0 1 0
5058 1 3.6362228376022561e+00 2.8727012938961063e+00 1.6397524198563467e+00 1 1 1
7 2 1.0521603394776753e+00 2.6295363484794319e+00 3.1110661735714862e-01 0 0 0
257 2 4.6430092910120395e+00 2.4637070272772537e+00 -1.4927050374389337e+00 0 0 1
6 2 3.1344966700613517e+00 2.0409436059075556e+00 1.6935115937019738e+00 0 0 0
1280 2 2.7686997957716493e+00 3.0062206864280805e+00 -6.3505737916829830e-01 1 0 1
4953 1 9.9674424377507940e+00 1.3176052746190989e+00 -6.3243165713868299e-01 0 0 1
5066 1 7.6117139912391707e+00 2.0104447424182497e+00 -7.6098657578885276e-01 -1 0 1
9 2 1.9799197016538745e+00 3.8815969741850416e+00 1.7173967272562267e+00 0 0 0
5096 1 8.4033817919507765e+00 7.4159144630696283e-01 6.1616908629378653e+00 0 1 1
3454 1 9.7527387758905049e-01 6.7044471785673243e-01 4.8676464377682285e+00 1 0 0
5814 1 4.8913701726406966e+00 1.0531344713472519e+00 -2.5800208680039063e+00 1 1 0
5782 1 1.0321313797295335e+01 2.1581263051461796e+00 5.0428591505856781e+00 1 1 0
4636 1 6.4026354943961614e+00 2.5458977374431213e-01 -5.8147327431003148e-02 1 0 0
3601 1 9.1261740941501515e+00 3.3365361951685335e+00 2.2220716237879365e+00 -1 0 0
64 2 8.0233156478899925e-01 1.4823301495009713e+00 2.5188329416676352e+00 0 0 0
5517 1 4.6583876195599743e+00 2.3065485101697245e+00 7.5780449977955886e+00 0 0 1
68 2 4.8640081572401446e+00 3.1879200664823335e+00 7.4256582553038388e+00 0 0 0
6117 1 4.4170880728758577e-01 1.5412090396041658e-01 -2.2123954094194298e+00 1 1 0
6083 1 4.9649847382494894e+00 4.7629951862053748e+00 -2.1670081728939392e+00 1 1 1
4171 1 9.2471770757573921e+00 2.6422944389773404e+00 -1.8793740687441027e+00 0 0 0
2114 1 1.6046584295102611e+00 7.8199098466084371e-01 2.0382140768544676e+00 -1 0 0
816 2 5.0933692635085457e+00 1.3140188774145669e+00 2.3687643399155540e+00 0 1 0
4835 1 6.5111506229812113e+00 2.3550218650701376e+00 2.2709617111701252e+00 0 1 0
229 2 2.5798940181941443e+00 7.9262401315916819e-01 -2.1985091701517252e+00 0 0 1
2092 1 4.1661936182856216e+00 3.5772403051440755e+00 7.0451216451804566e-01 0 0 0
4522 1 2.5444171663690143e+00 3.9737925527449063e+00 1.0129123746563309e+00 0 0 1
2554 1 6.9406919236439246e-01 3.3385085859771086e+00 7.3311373057551812e+00 0 0 0
5140 1 6.2542805935952384e+00 8.1949591239396447e-01 1.8326762132325376e+00 1 1 0
4572 1 5.9338730210370931e+00 3.2264111476564854e+00 -2.2147610581693020e+00 1 -1 1
2579 1 1.7115975366798577e+00 1.1463906070790031e+00 -1.8940079699164909e+00 0 0 0
4704 1 2.9212013817346221e+00 2.4696688291291147e+00 4.7128749910886034e+00 2 0 0
2050 1 2.5008722208921474e+00 4.2085737769311402e+00 3.3703281705777153e+00 0 0 0
4931 1 8.5338824196607383e+00 4.5862374300283099e-01 2.3569496746921681e-01 0 0 1
4307 1 2.1297701215228565e-01 1.6399837783419839e+00 5.6607592372119999e+00 0 0 0
5132 1 3.1719062195805696e+00 1.1368090949824983e+00 2.1379450714865502e+00 1 2 0
2795 1 6.9158576570993180e+00 3.2399348275507895e+00 2.0249557172431096e+00 0 0 0
5784 1 8.2987668622776525e+00 1.0199394318709043e+00 7.7612557878343154e+00 1 0 0
5728 1 8.4789302884648754e-01 2.2261320741946746e+00 -5.1950977918384833e-01 1 1 0
1061 2 3.5205387225084522e-01 4.7358918005317481e+00 -7.0514594143981202e-01 1 0 0
5125 1 5.0421190192976650e-01 6.7006957707117498e-01 3.8003722852685637e+00 1 0 0
2833 1 3.3154863326587258e+00 6.8262313072517056e-01 4.7918587789573381e+00 0 1 1
2728 1 3.7865289683758534e+00 2.3826993536269039e+00 6.5438127809171025e+00 0 1 0
2697 1 2.5042415186263831e+00 3.6099874070250687e-01 -4.7981874459842011e-01 0 1 0
4653 1 3.5397253631564904e+00 1.7274326016989581e+00 9.4898298124681846e-01 0 0 0
2594 1 4.8877109318879786e+00 4.4394042053571159e+00 6.7479068616826261e+00 0 1 0
839 2 6.3126988635633072e+00 4.6789596657277013e+00 5.8883423086565703e+00 0 1 0
4257 1 1.0089433217277875e+01 6.3350936643100320e-01 5.7553105743107746e+00 0 0 0
4390 1 7.4498097404786492e+00 5.5735490305853574e-01 8.4124713938306339e-01 0 0 0
2258 1 2.1567817966825209e-01 1.0208176737385373e+00 6.1121106057147090e-01 1 0 0
2360 1 5.9895625829631367e+00 9.4252340067139651e-01 3.2446905886294628e+00 0 0 1
4845 1 7.5707596425886710e+00 2.4687825093321818e+00 3.6840347214338856e+00 0 0 0
3849 1 5.5077673496795141e+00 3.5665401808130861e+00 1.0300078089841764e+00 0 0 1
56 2 7.0229026368211702e+00 1.3068224594749072e+00 3.9649447783220273e+00 0 0 0
5346 1 4.1906535992162883e+00 1.4097917488783498e+00 -9.6175206660341028e-01 1 1 0
3799 1 1.0602204324566722e+00 2.1907446337482086e+00 3.4917773022708527e+00 0 0 0
24 2 5.8663677806542127e+00 1.1971514910563243e+00 -1.1118985351564925e-01 0 0 0
4832 1 1.0004586011835004e+01 6.5239622662074148e-01 2.5654872500468437e+00 0 0 0
249 2 6.7225290418478005e+00 2.4731928099974003e+00 -2.0169972880375560e+00 0 0 1
5271 1 6.3936061304683456e+00 2.9501188963403107e+00 6.5022465390854656e+00 0 0 0
4082 1 2.0155740155086823e+00 2.1998587975059913e+00 -6.6028837332789037e-01 0 1 1
3792 1 8.9694806881121494e+00 2.7767805662183438e+00 7.1333280361043450e+00 0 1 0
3059 1 6.4602346891208509e+00 1.6794643191169141e+00 5.8917118124562107e-01 0 0 1
3740 1 6.7985792278550168e+00 9.2176634401047364e-01 7.1248596787028990e+00 1 1 0
19 2 7.0954330430559818e+00 2.7833423377333770e+00 7.9131146275346209e-01 0 0 0
845 2 2.7890727705974261e-01 5.1753893334454215e-01 7.5281494795339690e+00 0 1 0
14 2 9.3398259881922989e+00 2.1293121557233525e+00 7.1611165650717856e-01 0 0 0
10 2 7.3859019315810928e+00 4.2094451828441644e+00 2.0345420202696065e+00 0 0 0
1818 2 8.3992844831295113e+00 3.9333737395639075e+00 -6.5049621740385488e-01 0 1 0
817 2 7.3344780859455456e+00 1.0988562330115461e+00 1.8013544753521522e+00 0 1 0
829 2 7.9563077214283959e+00 1.0975822227018750e+00 -6.3288384224246030e-01 0 1 0
3249 1 4.7351059515239147e-01 4.7699393619938970e+00 3.9538464376461535e-01 1 0 0
4650 1 3.9352100082995617e-01 4.1542289486017179e+00 4.4444402988830278e+00 -1 1 0
3208 1 3.7737387491593579e+00 3.3933759154027050e+00 -2.2850723974667497e-01 0 0 0
264 2 6.1149900857616375e+00 4.2321671514459229e+00 -2.5483124655985678e-01 0 0 0
3584 1 3.8637071660076239e+00 4.0761057074806937e+00 5.1816550140102011e+00 -1 1 0
2489 1 4.9286209954916265e+00 1.8973776305037247e+00 -5.6214444835974753e-01 0 0 1
4011 1 9.8791773707388622e+00 4.4178762082647376e+00 9.2827268868448121e-01 1 1 1
3224 1 6.1199447196110475e+00 1.5075378289627932e+00 -1.2436861288987653e+00 -1 1 0
6044 1 2.7813755523987332e-01 3.0996716394212562e+00 6.0214962588555609e-01 0 1 1
3793 1 5.5028333139456764e+00 4.9411220555860096e+00 5.9022457842968983e+00 0 1 0
5874 1 4.5440068993072105e+00 4.2319228770672206e+00 2.0341373613864286e+00 1 1 0
1100 2 2.6008114399859800e-01 4.6987570335026527e+00 1.4799204669253347e+00 1 0 0
4076 1 1.2951161848074162e+00 9.2064967910930906e-01 2.1456402193870749e-01 0 1 1
788 2 5.0281859271512337e+00 2.3367958989855264e-01 -1.9538632251056827e+00 0 1 0
3847 1 8.8707990096425462e+00 1.5668923932659340e+00 5.6728826533382222e+00 0 1 0
3110 1 3.2903799085610084e+00 3.2762382481244279e+00 -1.4410193999970768e+00 2 1 0
122 2 8.3762524691846156e+00 2.7256976952692531e+00 6.4628953998564160e+00 0 0 0
5541 1 7.6717988517467051e+00 5.0432138907221029e+00 2.8330068239989998e+00 0 0 1
29 2 1.0241502514407165e+01 3.3243833697975131e+00 2.2725401250410693e+00 0 0 0
1313 2 1.8847430184582838e+00 5.0944165152046201e+00 -2.1956950221947782e+00 1 0 0
5535 1 3.7966696398317308e+00 3.8309955494787767e-01 7.7418241646837016e-01 1 0 1
3549 1 8.6520866493168427e+00 1.7918264470552092e+00 2.3001741775259843e-01 0 1 1
5776 1 7.8305396170959272e+00 2.3660623220035895e+00 1.3770011325900802e+00 0 0 0
4289 1 3.5500307918347227e+00 8.2744651105713574e-01 6.8124885915609479e+00 -1 0 0
6076 1 1.9840639519417096e+00 1.1142066853814039e+00 4.4243146936520947e+00 2 1 1
1062 2 2.9703494543972662e+00 2.8667631983726261e+00 3.7770308685934184e+00 1 0 0
1050 2 1.0489541317305613e+00 2.2759334982939126e+00 4.4728121741268980e+00 1 0 0
3790 1 1.9856465195991264e+00 3.1605629689452686e+00 5.3227730861384313e+00 1 1 0
3372 1 8.7038836755462583e+00 2.7538208460619540e+00 5.4713696081084784e+00 0 1 0
8 2 9.8843083910625982e+00 2.0348133353612847e+00 -1.2554836667434430e+00 0 0 0
1089 2 4.2080929472179956e-01 1.4537910254706645e+00 -1.7677442824926972e+00 1 0 0
1098 2 9.3890054433939074e+00 8.0520252069465403e-01 5.2523581070507097e+00 0 0 0
53 2 4.1834307033868958e+00 4.3546500196369111e+00 2.8110538283204427e+00 0 0 0
5909 1 6.9577853996068333e+00 4.2086669425504173e+00 6.7577179079103811e+00 1 1 0
5919 1 6.1911562538345128e+00 4.9197795918435530e+00 6.8869342792384103e-01 0 1 1
5175 1 5.2665566320351234e+00 3.5363012538554894e+00 6.0585234956859715e+00 1 0 0
1055 2 8.1222872942455360e-01 3.5585165470337436e+00 -2.2021650152088581e+00 1 0 0
4671 1 8.2131768416164110e+00 4.4584919962217864e+00 5.3859335636756231e+00 1 0 0
2522 1 9.1846231388219675e+00 2.0614815920935112e+00 3.3575669158921722e+00 -1 0 1
4135 1 1.9104473778597950e+00 2.4473492654424205e+00 4.2262384427081141e+00 1 0 0
1353 2 2.5044358478207085e-01 3.6794843878735137e+00 3.5239480329909458e+00 1 0 0
851 2 2.2192496593545488e+00 4.0739885275156834e-01 7.3119529087310138e+00 0 1 0
6118 1 2.6510118669985805e+00 2.8369316363727002e+00 6.7388568246624558e+00 0 1 1
4583 1 8.4220670036777612e-01 4.8518019616115806e+00 3.1466858667025370e+00 1 0 1
2571 1 9.0785029093801595e-01 3.4685525464549967e+00 2.7257880518742681e+00 1 0 0
2255 1 7.6546951593700010e+00 3.2845364334028559e+00 -3.1020237792014349e-03 0 0 0
61 2 6.3984957764098818e+00 2.2602587171943536e+00 5.8657022728372485e+00 0 0 0
4930 1 7.2024016144797240e+00 1.4231962241300176e+00 5.7392295123666752e+00 0 0 0
5850 1 9.4455041176446439e+00 1.9223643807947992e+00 1.7381508178207268e+00 0 1 0
17 2 2.5655208102165901e+00 8.0872349174309599e-01 3.5574001250953238e+00 0 0 0
275 2 1.6085789960253976e+00 4.1336230643963301e+00 5.7880038214994514e+00 0 0 0
305 2 2.9487352635790303e+00 2.2005515672074165e+00 6.1340629166481140e+00 0 0 0
37 2 4.3388243046655646e+00 1.0547268722290664e+00 4.4834771625259959e+00 0 0 0
46 2 6.0380142396058745e-01 2.4164202007809785e+00 6.3813848686772925e+00 0 0 0
41 2 4.5749244763825958e+00 1.1369878847264814e+00 6.6718499047382682e+00 0 0 0
4120 1 1.5486595493411878e-01 4.7641334449033117e+00 6.6365414786243662e+00 1 0 0
4903 1 3.0486911327103723e+00 4.5617748704296659e+00 -1.7199094762419953e+00 1 0 1
5078 1 7.6676212104955299e+00 4.7069317704935223e+00 -6.4331468183208917e-01 1 0 1
11 2 4.8687600775218050e+00 3.5641235993554288e+00 4.9834825255273332e+00 0 0 0
4172 1 3.6551795631990034e+00 3.1373444063025606e+00 3.1512174471945489e+00 1 0 0
341 2 3.7188626423598814e+00 4.6621883986011756e+00 3.6513083004352254e-01 0 0 0
1074 2 9.4325669864508086e+00 7.7032128441852643e-01 7.7308398462901025e+00 0 0 0
5356 1 4.5849221194925258e+00 4.1876544717741693e+00 4.1082146798366788e+00 0 0 0
833 2 1.9235411356820535e+00 9.6867831483046218e-01 9.5785686026016048e-01 0 1 0
811 2 9.5535810292974475e+00 4.4318559035901740e-02 5.3385647900816968e-01 0 1 0
2702 1 5.8607462615919044e+00 7.9556459138274571e-01 4.8840717293447584e+00 1 0 0
3100 1 3.4661470519877073e+00 1.7051882129240974e+00 -1.7998361121310935e+00 0 0 0
4676 1 9.5753253284473006e-01 2.2175620127078033e+00 1.3781143144045469e+00 1 1 0
6043 1 4.4431731216724790e+00 2.0330706253428374e+00 5.0632655629910968e+00 1 1 1
2582 1 5.8444977277654235e+00 4.1778914199388550e+00 3.4055983435840194e+00 0 0 0
5957 1 7.4809712979510561e+00 3.9825329533602838e-01 3.5807331659421671e+00 0 2 0
4827 1 1.3560927571132124e+00 1.7800628603398665e+00 6.5730352628848703e+00 0 0 0
307 2 1.9136210735323091e+00 5.0017965284643351e+00 3.3101735796806961e+00 0 0 0
5580 1 6.2719432881506787e+00 4.7672898158616697e+00 -1.5609980279153530e+00 1 0 1
2885 1 4.1490715160908227e+00 2.0284591931231346e+00 3.5731560901889452e+00 -1 -1 0
2133 1 8.7267232527678349e+00 6.7611207261673278e-01 -1.9237033408257327e+00 0 0 0
2307 1 1.5726500399029690e+00 4.7682400812777255e+00 4.8787743081780794e+00 1 0 0
5861 1 4.4160036085926180e+00 4.1327743444037984e-01 2.6814061557375455e+00 0 1 0
3158 1 9.6407995429325144e+00 4.5499657520972763e+00 2.9163696985147114e+00 -1 1 0
18 2 6.1437857246553342e+00 2.9204703201961388e+00 3.0904792193528117e+00 0 0 0
39 2 9.1826512785011243e+00 4.1963818126817320e-01 3.2032918487373427e+00 0 0 0
62 2 3.5585519466873898e+00 4.5538745416270867e+00 6.0583838385032642e+00 0 0 0
2891 1 5.1772750480324436e+00 1.9107851748462734e-01 6.2162055284647577e-01 1 1 1
5249 1 8.7377133050974223e+00 4.3736629843519879e+00 7.0018630159463466e+00 0 1 0
5773 1 1.5862774801750517e+00 2.6806487856191517e+00 -2.3404921808531141e+00 1 0 0
4 2 8.3616230109918774e+00 2.5102515459666526e+00 2.7689576940979839e+00 0 0 0
3722 1 2.9668344104147346e+00 4.6196468438159934e+00 2.0502708255142812e+00 0 0 0
3625 1 8.8201269791845789e+00 4.0614412642111475e+00 4.3412384494306089e+00 -1 1 0
317 2 8.9369897425357117e+00 4.7564040205844824e+00 3.4803290090956294e+00 0 0 0
3483 1 9.2308444793717452e+00 4.9281980105568728e+00 -8.1141888025522335e-01 1 1 1
267 2 4.1319580613178859e+00 4.4515709408878523e+00 -1.6873865672016513e+00 0 0 0
4276 1 6.2739182470721468e+00 3.2677996271416681e+00 -5.8111806916035258e-01 0 0 0
319 2 9.0311268811548118e+00 4.6538855858423620e+00 1.3779129207588827e+00 0 0 0
4669 1 8.1643236255641067e+00 4.2663240219405072e+00 9.2690646377040009e-01 0 0 0
4675 1 4.8332696491935812e+00 1.2511905673220741e-01 6.7472436969023111e+00 2 0 0
5246 1 7.0480054688245488e+00 3.3015559154930920e+00 5.0487788317715401e+00 0 1 0
4870 1 7.7067957658061266e+00 3.6378995964876699e+00 3.1042816159638313e+00 1 0 0
55 2 7.5890813755716646e+00 4.0665654166294607e-01 6.1803562954072291e+00 0 0 0
5024 1 1.1491373110596119e+00 4.9926427006654119e+00 6.2226801776583986e+00 1 -1 1
4892 1 7.8856701061080061e+00 1.6744917067902749e+00 2.4707885293543601e+00 1 0 0
2510 1 8.4189815317624994e-01 4.0845933712333968e+00 -9.8331736899081501e-01 1 -1 1
3695 1 5.2970895803700886e+00 2.3634698497221738e+00 3.0101081008249677e+00 0 0 0
1084 2 9.8318082020905475e+00 4.5689090246198623e+00 5.4132711221351979e+00 0 0 0
332 2 7.5888214629327155e+00 3.5682046269321681e+00 4.3842921068840273e+00 0 0 0
3155 1 5.6629449742508937e+00 2.1890602152908847e+00 4.9321260933648183e+00 0 0 0
87 2 9.6732677664537796e+00 2.7105392112553472e+00 4.2138898588662927e+00 0 0 0
2450 1 6.2559057988610993e+00 4.9826993791879346e+00 2.0486700513344642e+00 0 0 1
2069 1 1.8588070270150485e+00 4.8037468623383042e+00 -2.8676892526664011e-01 1 0 0
5633 1 2.6682204310371533e+00 1.1688629392334744e+00 7.6658938839643405e+00 0 1 1
3511 1 1.0303501945281857e+01 7.6738591826573022e-01 6.0883060155490165e-01 -1 1 1
5968 1 1.0319567818979202e+01 4.5350900842919426e+00 4.6340873986252129e+00 0 0 1
3692 1 4.6679145367491754e+00 5.1112375378402062e+00 -1.3163235762384120e+00 0 0 0
58 2 8.3090583310313573e+00 5.1711401110070518e+00 7.1129344901382723e+00 0 0 0
1097 2 5.6959540318000734e-01 2.0567127988858402e-02 4.2160812654537505e+00 1 0 0
2462 1 8.7203877172613109e-01 1.8089410424282688e+00 7.7684795479218938e+00 0 0 1
4079 1 8.9833938907434607e+00 4.0795306513918401e+00 -2.6338426651491744e+00 0 0 1
66 2 2.0311825186592829e+00 3.6340863182281216e+00 9.8656140119895035e+00 0 0 0
73 2 1.1791082966126483e+00 4.8995134123102630e+00 1.1230606461552869e+01 0 0 0
74 2 9.7059674985583499e-01 1.9351698332236189e+00 9.0708071265035546e+00 0 0 0
875 2 3.9456675260494527e+00 2.0899636777383281e+00 1.1188636693693212e+01 0 1 0
69 2 1.2347384980003717e+00 1.6914719124858857e+00 1.1037620977744071e+01 0 0 0
3024 1 5.0642092859170535e+00 3.5450691307812638e+00 9.5869139839130515e+00 0 0 1
76 2 1.0184682941685647e+01 3.0562832834137099e+00 1.5241570229916157e+01 0 0 0
382 2 3.8236129239485663e+00 4.5299426941834904e+00 1.1468095595907027e+01 0 0 0
5321 1 7.9173368314063062e+00 2.3138927956304984e+00 1.2200137141480337e+01 1 1 0
21 2 3.7663544494578791e+00 1.8369420942418986e+00 8.8051540947936253e+00 0 0 0
849 2 2.6000297558108891e+00 5.8836703010885716e-01 1.0065534982122820e+01 0 1 0
4749 1 6.6355830522732360e+00 5.1156769355400655e-01 9.2148201092822131e+00 1 1 0
2738 1 9.4235538025092005e+00 1.8099075692193305e+00 1.0620072312015415e+01 0 1 0
106 2 4.1762771826171674e+00 3.5905073017204372e+00 9.6165055239895860e+00 0 0 0
856 2 4.7691206593490785e+00 4.3945806904779328e-01 1.0484335082367718e+01 0 1 0
4343 1 3.0248689861924585e+00 2.4972911262846700e+00 1.1089845298847509e+01 0 -1 0
82 2 4.7495660619322404e+00 3.7401759021626635e+00 1.2915650575922923e+01 0 0 0
869 2 5.8688379057107616e+00 5.4912706414752654e-01 8.2234391453981530e+00 0 1 0
3225 1 6.9909004365900858e+00 1.8437505935119953e+00 1.3163708357240434e+01 0 1 0
75 2 2.2842130796779276e+00 2.9227047092965575e+00 1.2755432668312547e+01 0 0 0
3677 1 7.8652365113760359e-01 1.4991030441092061e+00 1.2188486454971871e+01 0 0 0
2837 1 1.0193485738281536e+01 1.0714467345144747e+00 1.7135168650502013e+01 -1 0 0
4088 1 3.3491886001119022e+00 2.5004186929206496e+00 1.5051776745936209e+01 0 1 0
4114 1 8.2869531324797521e+00 2.5235017263552417e+00 1.5590567448309411e+01 0 0 0
3291 1 2.4668523879517954e+00 1.6351034019636419e+00 1.7437279450742967e+01 -1 0 0
5908 1 9.0913567345845845e+00 1.3636532710209652e+00 1.4691581230811998e+01 -1 0 0
80 2 2.5890495310618387e+00 3.2234643212511420e+00 1.7778781626907694e+01 0 0 0
3609 1 3.5506482974849579e-01 4.4095596009631066e+00 1.5892614202026689e+01 0 0 0
4748 1 3.7326102945889863e+00 2.6262843556087736e+00 8.5105746907693511e+00 1 0 0
1112 2 6.6346721880790521e-02 2.9237891686309805e+00 1.2459970828203662e+01 1 0 0
6017 1 5.5256328890503079e+00 2.0250611529422820e+00 1.0937244031785561e+01 0 0 0
813 2 6.6500178364130857e-02 3.3662194727403048e+00 8.1345067364348740e+00 0 1 0
4032 1 1.8997160495168310e+00 1.5391512251363046e+00 1.5052736240870473e+01 -1 1 0
5242 1 5.9131401936948906e+00 4.0067338619654391e+00 1.4888516964357002e+01 1 1 0
6084 1 9.7085581029796653e-01 3.8676768981962737e+00 1.0647838345314394e+01 1 1 1
3644 1 9.8966459490398275e+00 4.3273642216217336e+00 8.0181981488923153e+00 0 1 0
4702 1 3.9617213152847266e+00 1.1086815309211504e+00 1.3408139430078506e+01 1 1 0
3800 1 3.7875007945520311e-01 3.8084165150071607e+00 1.1788622062452998e+01 0 2 0
1922 2 2.6393454704583812e+00 8.5487660660470555e-01 1.2608725898912775e+01 1 1 0
4304 1 5.0626867989043447e+00 2.0706494988560329e+00 1.4473402526724584e+01 0 0 0
897 2 2.6260724546505139e+00 7.1852535541235851e-01 1.7864369638331627e+01 0 1 0
2779 1 3.0912363642806975e+00 4.5440531946633875e+00 1.4869241836266774e+01 -1 0 0
4084 1 4.0529432529428213e+00 2.1732867612262465e+00 1.0024352802216706e+01 0 1 1
2803 1 8.7243354889154467e+00 3.8653768880393913e+00 1.1691205007702280e+01 0 0 0
895 2 8.6911185948334850e+00 1.8826919690497614e+00 1.3940995648938745e+01 0 1 0
900 2 9.7347422048462331e+00 6.2973567416387777e-01 1.5088113461266239e+01 0 1 0
3746 1 1.0213612390306097e+00 2.9503395564606403e+00 9.3514280678980786e+00 0 1 0
2804 1 4.5537632962881354e+00 2.6561203223342709e+00 1.6189135775920263e+01 1 0 0
5108 1 3.1906642251969735e+00 8.4753753358176809e-02 1.5965130215932156e+01 0 0 0
4400 1 7.5210201637282994e+00 1.8057884104245053e-02 1.4033748462622707e+01 0 0 0
121 2 6.2991274529326509e+00 2.2773654594588626e+00 1.3983119212275636e+01 0 0 0
4918 1 9.2732100264667547e+00 8.7961271753110226e-01 1.6616143371231246e+01 1 0 0
95 2 4.9109416550542289e+00 7.8218011493293205e-01 1.2921476674523328e+01 0 0 0
3008 1 1.3451146941579517e+00 3.5061810995760774e+00 1.7491395388283468e+01 1 0 0
5235 1 2.8802302797218591e+00 2.5584385523323161e-01 1.4525611435147436e+01 0 1 0
4446 1 9.3195384570129161e+00 2.9167050618824066e+00 9.7244589231084966e+00 0 0 0
113 2 7.5918906006329125e+00 3.0935965046759719e+00 1.7938066302404501e+01 0 0 0
3871 1 8.0369514663866148e+00 1.0106111430641500e+00 1.7574687365435850e+01 0 1 0
4837 1 5.5625200676103086e+00 3.4153705021853820e+00 1.3398330791257209e+01 0 1 0
70 2 6.1510996481945632e+00 4.6502516900444650e+00 9.6125225639105771e+00 0 0 0
347 2 9.3261368961427475e+00 4.7801824728326592e+00 1.1652781278667597e+01 0 0 0
865 2 6.0481610429735975e+00 1.7092318029639924e+00 1.1567614094851185e+01 0 1 0
81 2 7.7752174901811193e+00 2.8921003120280302e+00 1.0210708459298958e+01 0 0 0
860 2 9.1064555841857953e+00 1.5994367265894802e+00 1.1605711809156825e+01 0 1 0
89 2 7.7040434195366378e+00 1.7432476377219039e+00 8.3037515667105364e+00 0 0 0
5367 1 8.0091528970023074e+00 8.3921489437744301e-01 1.1900380870166444e+01 1 1 0
366 2 6.4104645858416305e+00 4.8479605345172043e+00 1.1800626968840749e+01 0 0 0
5280 1 9.3762654228793583e+00 2.5978740200181081e+00 1.1948936210721605e+01 0 0 0
57 2 7.3378458604509982e+00 6.4805531443731723e-01 1.0271754885549095e+01 0 0 0
2262 1 9.3082983156054748e+00 1.3734148904402337e+00 1.2918375390999147e+01 -1 0 0
5097 1 9.4687394428722325e+00 2.5283297570029437e+00 1.5451500697342137e+01 0 1 1
77 2 1.0174703838039628e+01 3.1034376091575910e+00 1.3003836823723038e+01 0 0 0
90 2 8.4824633016603350e+00 4.7473727225208915e+00 9.4196104433026822e+00 0 0 0
1872 2 9.5977745856775574e+00 1.9185474305136385e+00 9.6632205335789578e+00 0 1 0
3797 1 4.2802243746947584e+00 4.7147159167428940e+00 1.3186981867880354e+01 0 1 0
96 2 5.9361082073818059e+00 2.3634344037350892e+00 9.4512752767228321e+00 0 0 0
892 2 4.9018102758076081e+00 4.6142043431864077e-01 1.8116286627570279e+01 0 1 0
5182 1 7.5601685863824564e+00 3.5236642203071677e+00 1.1420816166392598e+01 1 -1 0
2291 1 1.7518136289194388e+00 4.5887493583603192e+00 1.6051257977114517e+01 0 0 0
5777 1 6.1931972170938998e+00 3.1921743683248986e+00 1.0151135921809825e+01 1 1 0
3787 1 8.1531404156685578e+00 3.8929768470109676e+00 1.7292423375417101e+01 0 1 0
2790 1 8.9574215248503801e+00 2.6287254751871725e+00 1.7162641307613260e+01 0 1 0
2276 1 3.4677097475250389e+00 1.0712734027968953e+00 1.1714729145132877e+01 0 0 0
5442 1 1.6353833578392840e+00 3.4094080652436727e+00 1.3464178436828025e+01 1 1 0
2532 1 8.4073737830789810e+00 2.4607388317518111e-01 9.4177796069599626e+00 0 0 1
5619 1 8.4125833356500799e+00 2.2118324694960472e+00 8.7468948352043423e+00 0 1 1
4142 1 9.7719157290040481e+00 5.6967860295077788e-01 8.5357847657431822e+00 1 1 0
2358 1 9.0039232014662147e+00 3.6364903466290786e+00 8.8349134738113442e+00 0 0 0
5358 1 7.8480669873223610e+00 5.0757849280160467e+00 1.2539631740975775e+01 1 1 0
1152 2 9.6188114742761499e+00 3.3326121123159274e+00 8.2346327903662395e+00 0 0 0
4070 1 8.6632794467863565e+00 3.6411986569137613e+00 1.0136855892925940e+01 0 1 1
3732 1 5.5410422875227896e+00 3.1067109632245011e+00 1.1084115533748264e+01 0 0 0
83 2 7.4033689830636966e+00 7.8935491699363802e-01 1.2584900435421465e+01 0 0 0
3820 1 6.7071480589581940e+00 1.2017238763294542e+00 1.0538525049087129e+01 0 1 0
303 2 2.5279704181431542e+00 3.7210138285182173e+00 7.8662168626974331e+00 0 0 0
3912 1 7.2596300789974499e+00 2.1392356708983833e+00 1.7165584491252705e+01 -1 1 0
3152 1 5.1990631026341889e+00 3.9943118735026411e+00 1.6884752316054961e+01 0 0 0
5552 1 3.6552778253756566e+00 4.2061545937765796e+00 8.4910964046878910e+00 0 1 1
5536 1 1.4226576873194576e+00 4.8346324742755717e+00 7.8812308810349236e+00 0 0 1
3711 1 1.9874574222989816e+00 4.2693714308161024e+00 1.2064093988241398e+01 0 1 0
2694 1 2.9319140453332810e+00 1.5005906830029552e+00 9.1758918985562268e+00 -1 1 0
5644 1 5.4587828462240351e-01 2.7406907382779178e+00 1.6273281537072840e+01 0 1 0
5145 1 2.6744897385736226e+00 2.8621832276593180e+00 1.6851196014094455e+01 0 1 -1
5228 1 5.5897810435448330e+00 7.4038964901152060e-01 1.7724237556964781e+01 1 0 0
5289 1 2.9314415956867745e-01 2.4910691186924794e+00 1.0892949495365661e+01 0 1 0
124 2 8.7455490456198639e+00 4.3192747689688469e+00 1.3842158061748741e+01 0 0 0
3522 1 3.4868458763756610e-01 2.0421159391094883e+00 1.2790819055185059e+01 1 1 1
4971 1 4.6032434385143457e+00 1.0714945742034472e+00 1.5817179986504307e+01 1 0 0
123 2 8.6221427475488763e+00 4.4483837976748308e+00 1.6288913631648640e+01 0 0 0
2716 1 2.1485206225481761e+00 4.4173489031599935e+00 9.3751579184219018e+00 0 0 0
2746 1 7.0742360424339950e+00 4.2170606083766780e+00 8.8264387275367131e+00 0 0 0
102 2 9.8421426401921206e+00 2.9032982875080284e+00 1.7768979965941895e+01 0 0 0
4825 1 7.2120196470545688e+00 2.1777254136226358e+00 9.1472741129710506e+00 0 0 0
3753 1 6.3638237587280253e+00 2.1513717812208943e+00 1.5130104493092997e+01 0 1 0
2934 1 3.3214940764596568e+00 1.6167697575709929e+00 1.5934543018488331e+01 0 0 0
4296 1 2.0960380869383779e+00 2.6892017537961950e+00 1.0493148407290892e+01 0 -1 0
879 2 2.5750554124265586e+00 5.7863539290427746e-01 1.5360334677795183e+01 0 1 0
103 2 2.8031257742235511e+00 3.3018084460696615e+00 1.5660995184058649e+01 0 0 0
104 2 1.1156200854846599e+00 1.6355566973812188e+00 1.4131043741259610e+01 0 0 0
105 2 3.5021176280761295e+00 2.2252730859228298e+00 1.4154656814135958e+01 0 0 0
107 2 1.1918931780821800e+00 1.7095434823527218e+00 1.6628860432257266e+01 0 0 0
108 2 4.0312503514650331e+00 1.6479874379004522e+00 1.6526998858695723e+01 0 0 0
109 2 1.0560414108795082e+00 4.2422408108362539e+00 1.4154536986615657e+01 0 0 0
110 2 3.3695442841071901e+00 4.8345627908541244e+00 1.3873213506795384e+01 0 0 0
111 2 1.1736386797296681e+00 4.4029696814280861e+00 1.6729075014730984e+01 0 0 0
112 2 4.1087067862561248e+00 4.6799301756880487e+00 1.6768365506046610e+01 0 0 0
114 2 5.0784933958594429e+00 3.4260279926320210e+00 1.5423428615110023e+01 0 0 0
3475 1 2.0285380627714167e+00 8.6047547278571090e-01 1.1106478401668483e+01 -1 0 0
4637 1 2.8066281077029633e+00 2.2287166860345313e+00 1.2298307631260316e+01 1 0 0
3077 1 9.5229435270748830e+00 4.1712930913323270e+00 1.4327774734680141e+01 0 1 0
2827 1 4.2404392575644394e+00 3.6696749827838806e+00 1.2065886711002303e+01 0 0 0
5724 1 2.9746827968914462e+00 3.9572373585530776e+00 1.3525884832518400e+01 1 0 0
5844 1 3.9412995661691457e+00 3.8559856045689611e+00 1.5498864413840160e+01 0 1 0
4202 1 1.5219439279202474e+00 3.9107222686590402e+00 1.5318328624199257e+01 1 0 0
881 2 7.2519821388294776e+00 2.7093867558327134e-01 1.8285079260027697e+01 0 1 0
2350 1 3.1082006870773222e+00 4.1324790646474030e+00 1.7129383217298926e+01 0 -1 0
4712 1 6.3590345696265977e+00 3.0378093906413217e+00 8.2607925363469228e+00 1 0 0
5897 1 6.1143830159591799e+00 1.3039137694289997e+00 1.4148922182066723e+01 0 1 0
3780 1 4.6658424974494901e+00 2.5482872606045088e+00 1.7480223955372782e+01 0 0 0
4264 1 5.1994127122047846e+00 5.0915144087986475e+00 8.0020388253982855e+00 1 0 0
3923 1 6.0299993819368325e+00 4.1925001573328800e+00 1.0771336614850631e+01 0 0 1
2722 1 1.7979292042856869e+00 1.4991307015065209e+00 1.6075831173608240e+01 -1 0 -1
5944 1 1.9312756782535863e+00 1.6573536572166919e-01 1.4243593713166710e+01 0 0 0
5333 1 4.2102311439274809e+00 4.4882861418849691e+00 1.0277940062641493e+01 1 0 0
3277 1 4.7465191723376403e+00 1.3911780932017450e+00 1.2219457313850405e+01 0 1 0
5942 1 5.2780422596054146e+00 5.5803510158159519e-01 9.7021955820264765e+00 0 1 0
2974 1 7.8902730029123758e-01 1.1076314296569933e+00 9.3310379728532915e+00 -2 1 1
2479 1 6.9574624188321401e+00 1.0161778975876912e+00 1.7703458244218169e+01 0 0 1
4325 1 2.1116880656747958e-01 3.6527399159540606e+00 1.4417645381016442e+01 1 0 0
3266 1 9.2940287207304877e+00 2.8463981920653523e+00 1.3445511029958766e+01 -1 1 0
3267 1 4.4422031025321151e-01 1.5396672402434178e-02 1.6403961476050320e+01 0 1 0
3323 1 8.2691892352624823e+00 4.7752029344705784e+00 1.5024763539198290e+01 0 0 0
2596 1 6.6422180759551210e+00 3.7231185494139831e+00 1.6076112984134905e+01 0 1 0
5783 1 1.4771046822174945e+00 1.2958133835288133e-01 8.2864594453486919e+00 2 1 0
93 2 7.4881785693467364e+00 3.1972689235284903e+00 1.2537359586833484e+01 0 0 0
3033 1 4.0989301686405009e+00 1.6674223962364805e+00 1.4560784125855800e+01 0 1 0
5375 1 5.5197950475830018e+00 7.6705235228565538e-02 1.1140837321431990e+01 0 0 0
2700 1 4.5428348651347701e+00 2.6369109764866971e+00 1.2286113565195125e+01 0 1 0
86 2 7.1567429348875242e+00 3.6214197290893115e+00 7.9273125652697338e+00 0 0 0
874 2 5.1126985360561399e+00 8.9639974407052991e-01 1.4975968779837668e+01 0 1 0
5071 1 5.4871186692536167e+00 4.8353714498221096e+00 1.2247632620369306e+01 0 0 0
4782 1 6.1550063259422831e+00 2.5085477658856807e+00 1.2171145737345164e+01 1 0 0
888 2 9.0838048586566592e-02 5.2791907616780043e-01 1.2325912074670773e+01 0 1 0
3319 1 1.0144182697034161e+01 3.1120910279660119e-01 1.4220492029707987e+01 0 0 0
2331 1 1.4200972079851752e+00 5.7927037247235791e-01 1.7011610016830108e+01 0 0 0
5917 1 9.8744817377356195e+00 4.1937462610041942e+00 1.2095255053505761e+01 0 1 0
127 2 6.3896646195521480e+00 4.3851372816802563e+00 1.4034141180455208e+01 0 0 0
4378 1 2.0939199294378397e+00 1.3537632763840457e+00 1.3593368937970489e+01 0 0 0
125 2 6.5226916316705656e+00 1.9057035459304621e+00 1.6421757205167456e+01 0 0 0
2354 1 7.2642180036032631e+00 1.4472480571500690e+00 1.5574325870062960e+01 0 0 0
3889 1 7.1091748489690634e+00 3.8557604467078872e+00 1.4831213823124919e+01 0 1 0
904 2 7.4751141585084495e+00 3.7957519718216193e-01 1.5053686634018174e+01 0 1 0
126 2 7.4973227701349305e+00 3.3287864191774719e+00 1.5440325782093833e+01 0 0 0
99 2 6.3478591302737808e+00 4.6635593024809348e+00 1.6607378616036069e+01 0 0 0
120 2 8.6534624513044029e+00 1.6703783045492906e+00 1.6470541508941231e+01 0 0 0