LAMMPS data file via write_data, version 5 Jun 2019, timestep = 400000

6144 atoms
2 atom types

0.0000000000000000e+00 2.1299800000000001e+01 xlo xhi
0.0000000000000000e+00 2.1299800000000001e+01 ylo yhi
-3.1297382632862778e+00 3.9724622723730405e+01 zlo zhi

Masses

1 1.008
2 15.9994

Atoms # atomic

1573 2 1.8370424648211441e+00 4.0985998133329309e+00 1.2485078252293293e+00 1 0 0
536 2 1.6910791324739487e+00 1.2108980834585479e+00 1.1548130585803111e+00 0 0 0
1511 2 2.5232071246737893e+00 7.6078256618131945e-01 -1.5093109874720017e+00 1 0 1
869 2 7.1664845577623764e+00 5.3680438872471446e-02 -1.6460955377425150e+00 1 1 0
1020 2 2.9422248550791421e+00 3.1071792236180160e+00 -5.5013225166468338e-01 0 1 1
1276 2 3.9513844006749581e+00 3.1839817917347868e+00 1.8014876000229272e+00 1 0 1
1817 2 3.4824852603462588e+00 1.1368678476821796e+00 5.5160567818162942e-01 1 0 0
2711 1 5.8921165436033907e-01 3.8058675775153157e+00 -2.4484369265209143e+00 -2 2 0
4638 1 7.9337193476663348e+00 7.3721987944878509e-01 2.8730523034858066e+00 1 -1 0
1018 2 1.6404418848692517e+00 4.1734881309831735e+00 -1.5941861614874837e+00 0 0 1
2496 1 6.3836965867368329e+00 2.1181107023807071e+00 3.4985404681484216e+00 1 0 0
749 2 5.0368008923199330e+00 3.9616120680213256e+00 -1.8553906360008290e+00 1 0 1
2657 1 3.1709085031714279e+00 5.2356215452128085e-01 5.4396821789566712e+00 2 1 1
3101 1 4.4286045913673405e-01 8.5075678305015068e-01 2.5179579058668695e+00 1 2 0
4795 1 6.2473936556951903e+00 5.0510692370128230e-01 -3.0598636284879159e+00 2 0 0
531 2 4.9220590564664111e+00 3.8788106336328698e+00 2.5156448238454532e-01 0 1 0
1333 2 1.3097504800058735e+00 2.3185058516337782e+00 -2.9068223240994837e+00 0 0 0
31 2 5.0188053731079654e+00 4.6955940968166210e-01 -2.3212454326753220e+00 0 0 0
3394 1 5.2589241513164229e+00 5.7031847756324860e-01 -1.0458065891018307e+00 0 0 -1
3045 1 2.2869950473396714e+00 4.5252174859139904e-01 9.2547219764473088e-01 -4 2 1
5879 1 3.7919698624078655e+00 8.9040244741448005e-02 -2.4891556976349873e+00 0 1 2
2424 1 3.4614986119006513e-01 7.6969635888978172e-01 -9.0063177523111637e-01 -1 2 2
2921 1 7.3718387929818450e+00 1.8411464841497782e+00 -1.9942389496159136e+00 2 -5 1
5415 1 7.5301023386395665e+00 2.7618809139547960e+00 5.3458461820622514e+00 1 -2 0
4245 1 1.5766035024646015e+00 1.0875432237572815e+00 3.9451416496985630e+00 1 1 0
2681 1 3.1113103468979741e-01 9.8684518997352910e-01 -2.7607802815786346e+00 1 1 -1
5249 1 4.3713193914013498e-01 4.7242280842849960e+00 3.2613684054649550e-01 -1 0 0
2229 1 2.4604597348256059e+00 3.4076236941050113e+00 1.0037442844562108e+00 2 5 0
5626 1 1.0489411200450474e+01 9.7299935594549158e-01 4.8036424149671992e+00 5 -4 2
4751 1 2.5691766452037346e+00 2.8936481506186542e+00 5.1123690388966896e+00 1 -1 0
3293 1 4.8353091854890886e+00 1.8215323305421502e+00 2.2755869088827332e+00 -3 0 -2
4311 1 4.2491144260356553e+00 3.0568516605147598e+00 3.2406180751213949e+00 -1 1 1
5650 1 8.8892039277088450e+00 4.9804803473514934e+00 6.3397405956645549e+00 -3 -1 1
3739 1 6.0743852929778015e+00 9.5573502772957897e-01 6.2455761989363339e+00 2 2 0
1299 2 5.0119545446962999e+00 4.9729147346510927e-01 7.3991629009373092e+00 1 2 0
3191 1 3.1642649940486478e-01 4.1677494682167957e+00 1.7095067539279745e+00 1 -1 -1
2530 1 1.0412594026365129e+01 1.0406979401530945e+00 6.5211703373349188e+00 1 -2 0
581 2 1.0401410554092879e+01 3.5689215560817891e+00 2.0134567688401619e+00 0 0 0
3336 1 9.7926735904757312e+00 3.9011841431857652e+00 -1.4023779327614232e+00 -3 1 0
627 2 9.1189998271141515e-01 1.3717484718612138e-01 5.6056833427975334e+00 0 1 0
1821 2 6.5849963861863712e+00 2.1415196000195356e+00 -2.1958982681804402e+00 1 1 0
5982 1 5.0276780990520118e+00 1.7603311475245182e+00 4.7321329201773539e+00 0 -1 0
3565 1 1.0172301543191233e+01 4.3046998734173876e+00 3.8570139229729259e+00 3 3 1
3046 1 9.4440441628970522e+00 1.2717017461723859e-01 3.1918042982662431e+00 0 0 2
5660 1 8.1960352638184855e+00 4.0617595157940141e+00 5.1718251050595558e+00 2 2 0
3678 1 1.0570295187271746e+01 2.0890384898124283e+00 -1.4563370924584742e+00 1 -1 1
3029 1 1.0550152568303718e+01 4.5076486328890848e+00 1.8438162628457944e-01 -4 3 1
2403 1 4.3497008242970869e+00 6.4793197980639872e-01 1.1434468943549332e+00 0 2 -1
2680 1 3.6784478235487832e+00 4.1804843353189245e+00 2.0958216859338155e+00 -3 1 -1
2842 1 9.1952941669637021e+00 1.4133521040349428e+00 1.5988970463900714e+00 -3 3 0
1094 2 9.7420462032159723e+00 5.1167241164571688e+00 5.5217034113690513e+00 0 0 0
3461 1 3.2882277391106252e+00 1.3915543930451617e+00 6.5372843684017230e+00 3 3 2
3262 1 5.7577256709990401e+00 4.5665908836431357e-01 4.9837901721646656e+00 2 -1 1
4973 1 2.7221708152842067e-01 1.2970183559815307e+00 1.4980730909168374e+00 1 2 1
5797 1 5.8695665137039965e+00 3.5976389345188378e+00 8.7718951600866824e-01 2 -2 2
5690 1 3.2493561789887839e+00 2.0662661261066249e+00 7.2134346059797316e-01 -1 1 -1
5501 1 8.1693560100142779e+00 2.0258696829679361e+00 -5.2230032952501082e-01 0 -3 0
3755 1 7.4858907912822206e+00 4.1811413633369643e-01 1.4275480405948890e+00 -2 2 -1
4730 1 2.4081576505427149e+00 4.4586855489519479e+00 -3.7554092245049997e-01 0 0 -1
1806 2 9.1291951217443845e+00 1.6968972616701605e+00 2.8183651052073255e-01 1 1 0
3833 1 8.5672556778574620e+00 3.9434037276908835e+00 1.3983945422140076e-01 1 3 2
4207 1 1.0294488128592539e+01 3.0684462434232764e+00 5.2594764175207214e+00 -2 3 0
1626 2 7.6911794488878273e+00 1.1304979329305096e+00 2.1744624901043519e+00 1 1 0
3039 1 6.4336849371937044e-01 3.2198450671228729e+00 6.0446083086925313e+00 -1 3 0
4494 1 9.9274070529550362e-01 4.5428277754374005e+00 3.7362376742020551e+00 -1 0 -1
5665 1 1.8459467096388091e+00 1.5007006301641046e+00 2.8021530219208124e+00 -1 -2 1
1583 2 5.5701066283601595e+00 1.2862451014392444e+00 1.2460659871428659e+00 1 1 0
571 2 4.8641242186465172e+00 2.0174319730816155e+00 -8.7076068943190155e-01 0 0 0
1014 2 8.6327382375128590e+00 1.7263454736789232e+00 -2.4468153427238550e+00 0 0 1
1579 2 1.1874129963753353e-01 3.9791402345836482e+00 -1.4060278044640384e-01 1 0 0
782 2 7.1273550048123955e+00 5.0921227281313604e+00 2.2379398450661903e-01 0 0 1
4399 1 7.8400317853449302e+00 2.5104175514117326e+00 2.4500343538374949e+00 -1 3 2
1232 2 8.9280847996191195e+00 4.1862752680045947e+00 8.6873881256106822e-01 0 0 1
1895 2 7.0100906742892288e+00 2.1015656219904995e+00 -2.4483723451060602e-01 1 1 0
1349 2 1.0614734692308763e+00 2.2760896428656174e+00 -6.0513398653773587e-01 1 1 0
2166 1 5.7412453073115612e+00 3.9515370957748233e+00 -2.5843722836699357e+00 1 -1 1
3524 1 9.7324695906001875e+00 4.7504028095780360e+00 -2.5803146793509137e+00 -1 -1 0
5188 1 3.6785190569096264e+00 9.6993500614624817e-01 3.4494856801064087e+00 -2 1 1
219 2 7.7753740762150194e+00 3.7038015813898193e+00 -1.3542890445593745e+00 0 0 1
4984 1 9.8444359686552012e+00 2.4652310443194905e+00 4.1203409826272708e-01 1 3 1
4324 1 5.8172607203032145e+00 1.5746277739616383e+00 -2.4057182552206036e+00 -2 0 2
1345 2 9.7712993157344581e+00 1.0930624900043440e+00 2.3791548938650982e+00 1 1 0
5015 1 5.0768493531983756e+00 4.9137264118756576e+00 -1.8032639404717035e+00 -1 -2 1
1348 2 9.6738046741989547e-01 8.5034834734306619e-01 3.2689662300943798e+00 1 1 0
446 2 3.2219120435965052e+00 4.7176992698646494e+00 -3.0810145865755474e+00 -1 0 1
4635 1 3.2921979459828301e+00 2.2781820757493150e+00 2.1462545845903875e+00 1 -5 -1
3165 1 7.1613509467555385e+00 4.3426206676224552e+00 1.9992660968281752e+00 3 -1 0
5757 1 5.0541017046889154e+00 1.2129374467151253e+00 6.4681142585387121e+00 3 3 -2
4485 1 4.5829314854733738e+00 2.2203945071088158e-01 -3.9700762687615976e-01 -1 2 2
3611 1 6.6179337580829758e+00 2.5622038309856232e-01 -8.0666658245851952e-01 -1 3 1
3375 1 8.7951934549494881e-01 4.5663246566769755e-01 6.8253621413782390e+00 2 1 0
3215 1 6.4489373528497227e+00 3.5175093277355853e+00 -1.8612355937239811e+00 0 2 3
5612 1 4.9025270324990764e+00 4.6723015164313146e+00 1.2412613713843976e+00 4 -5 0
5340 1 2.7553578718531191e+00 2.2254635512282746e+00 3.7066459433961239e+00 3 -1 -1
5909 1 1.2097428501761485e+00 1.8800634735723674e+00 5.6273155358870142e+00 0 1 0
4062 1 9.9103190988593803e-01 2.1282024935813433e+00 3.7404190546021576e-01 3 5 -1
5480 1 1.0616247221867734e+01 4.4868104006696807e+00 5.4973667068272505e+00 2 0 1
238 2 1.0322014682257050e+01 2.9861120061750084e+00 -1.7705278872882597e+00 0 0 1
1830 2 3.0481471796038000e+00 7.1091884804239669e-03 6.2897320750083150e+00 1 1 0
5079 1 1.5723868777476617e+00 2.8430824789592428e+00 3.9105373673007708e+00 1 -2 2
4692 1 3.1037756368616467e+00 4.6265693299958421e+00 3.5547666720177729e+00 -1 3 2
3532 1 5.2313678840876197e+00 1.9798140951767327e+00 6.9913240416277489e-01 1 -1 0
1203 2 1.0056768452996698e+01 6.3900502117799018e-01 7.3614822988219029e+00 0 0 1
3736 1 9.2141795920937408e+00 9.4680514975630214e-01 -4.1618969843442999e-01 1 2 0
3998 1 9.9507526963285713e+00 3.1987427176020455e-01 1.6622459789482020e+00 -1 -2 2
3713 1 5.9895151455067861e+00 1.5410747052543938e+00 -6.2413262574335482e-01 -4 3 0
3568 1 1.0726669961786575e+00 5.1356108081831897e-01 1.0303044324593547e-01 -1 2 0
6117 1 5.8319907200312215e+00 2.8576393797847119e+00 6.5752918483747465e+00 2 5 -2
846 2 3.4328818281637252e+00 2.5637569098412429e+00 -2.6921447491817174e+00 1 1 0
252 2 7.9194213672339098e+00 4.8716523993470862e+00 4.1486623753186711e+00 0 1 1
4677 1 9.2761849769094447e+00 5.2362117376836368e+00 -4.2642159900221044e-01 0 5 -1
365 2 5.0795386432773686e+00 4.8756990180295228e+00 2.2055393488248436e+00 0 -1 0
4310 1 4.0237538433613906e+00 2.9989419683251652e+00 6.3503320025924932e+00 -1 4 -2
850 2 2.4657644670484675e+00 3.8306346733649779e+00 5.3681758392853318e+00 0 1 0
3185 1 1.6272451586501118e+00 4.6110966061898750e+00 5.1889211672414959e+00 1 -1 0
5864 1 9.1864066815562158e+00 9.5695063109918199e-01 -2.7711596088781940e+00 -1 3 -2
1695 2 9.4022418575035740e+00 4.8933596413935856e+00 -1.2359984070577152e+00 0 0 1
48 2 4.2842303156272719e+00 1.2571730103438916e+00 5.0661102959037976e+00 0 1 0
1294 2 8.8824376374128522e-01 2.2375432743586225e+00 6.3754768764943073e+00 1 1 0
54 2 3.0544387705218190e+00 2.3782689196300244e+00 6.6861923350814685e+00 0 -1 0
3515 1 6.8133933034615968e+00 2.1097537335619618e-01 3.5652066770277235e+00 2 2 2
1001 2 1.7083197224936335e+00 3.1335066627961736e+00 3.0677400514843436e+00 0 1 1
1067 2 4.0435642866249069e+00 3.0279387816650707e+00 4.0863881995246505e+00 1 0 0
3843 1 7.0712892451452953e+00 3.1509078220469746e+00 9.2182247236037718e-01 1 1 2
2902 1 8.0232325884604823e+00 4.7293374593529638e+00 9.4611512953888965e-01 -2 -2 0
1009 2 4.6644723750783106e+00 4.1986876209950772e+00 5.9559393689346738e+00 0 1 1
1341 2 2.2169888185751772e+00 1.7425700762745895e+00 4.6026654639530049e+00 1 1 0
1856 2 3.2644766927017854e+00 1.1769674942104438e+00 2.5016290303280959e+00 1 0 0
323 2 5.6283947564136172e+00 1.6039570566808306e+00 3.4395658905755901e+00 -1 0 0
5313 1 2.8851337959845229e+00 2.3082623185410092e-01 -3.5253152744846838e-01 0 -3 0
3454 1 3.8555237428917359e+00 2.6674193400675050e+00 -6.8724205725674903e-01 0 0 2
2991 1 9.2418025703721014e+00 1.5855338202287361e+00 2.8083745647874041e+00 0 1 0
4668 1 8.7099682979430515e+00 4.8207934048178585e+00 3.4513191989791148e+00 4 0 0
1875 2 1.0395577382681775e+01 3.2416269251296446e+00 4.2301021903358080e+00 0 1 0
4544 1 1.4999160276585299e+00 1.8066073489302230e+00 -1.6126727709709443e+00 1 -1 1
4476 1 4.9761904869499247e+00 4.5157827830599366e+00 3.0612736293272471e+00 4 -1 1
1494 2 3.6066900858010226e-01 4.1905344856081905e+00 5.9917855914212979e+00 1 1 1
5946 1 2.5910042596203686e+00 1.8872225119623071e-01 2.1667498979182236e+00 1 0 1
5958 1 8.6652423880531657e+00 4.3670421946145908e+00 2.3958687192778285e+00 3 2 4
5792 1 6.4019298205704702e+00 1.8136761453389987e+00 1.7125799431248341e+00 -2 5 -1
2276 1 8.9650218237577199e+00 6.6547000393175748e-01 5.0263757361353125e+00 4 1 -1
2753 1 1.4252397132692338e+00 4.0383623881463002e+00 2.9472977730729690e+00 1 -2 -1
5774 1 9.4522347090024841e+00 2.9833610907253054e+00 2.4314552029752878e+00 1 1 0
4272 1 5.2198246533276542e+00 3.6071306189929060e+00 4.3539550496493833e+00 1 0 1
5198 1 4.1770463632182437e+00 2.1717289222497991e+00 5.6668023048290621e+00 1 2 0
5421 1 1.2895532427864664e-01 3.6298895301143554e+00 4.9031796260347509e+00 1 -3 -1
3564 1 6.1027734921430579e+00 3.1351474215868320e+00 4.9082941116414833e+00 2 0 0
5409 1 7.5994946483849519e+00 3.0811808171908615e+00 3.7467151818610667e+00 0 1 -1
4150 1 2.7892438243657685e+00 5.0826450164241459e+00 -2.1689867515408046e+00 -3 0 0
5510 1 8.7976223474195869e+00 1.1574044789316014e+00 6.7391205814963158e+00 -1 2 1
3163 1 1.8663265397853466e+00 2.7066667199886223e+00 6.6323907115704070e+00 -1 -1 -1
4844 1 5.2166325752239784e+00 3.0244682441570188e+00 -7.3597562081156953e-01 0 -2 0
3110 1 1.5861854911975259e-01 4.5452896587892966e-01 5.0240355246783786e+00 1 3 0
1303 2 6.6072981892345224e+00 3.3648646683009118e+00 1.8067577692084900e+00 1 1 0
4050 1 8.5792589130894044e+00 3.9000674256869181e+00 -2.1384127964892516e+00 -1 1 2
3030 1 2.8320358359425102e+00 1.4963967855565834e+00 -1.1511256518925832e+00 0 3 2
868 2 8.6266912077111417e+00 3.1833246437128171e+00 2.9597275589710996e+00 0 1 0
5914 1 3.6113404680128243e+00 4.1198644070572810e+00 4.1838355273633629e+00 -1 -3 1
3417 1 5.6145594756955424e+00 4.1926615336350999e+00 -2.5793823835686025e-01 1 0 2
2848 1 6.0559241009471689e+00 4.7839143596024414e+00 2.4039857663141015e+00 0 1 1
4929 1 3.5186809602366670e-01 4.2831083478093204e+00 -1.0544085320642478e+00 4 -2 1
1112 2 7.4836075883545616e+00 2.3334130444912038e+00 4.4356208382902009e+00 1 0 0
3566 1 9.4722382821324604e+00 2.3851305030144072e+00 4.3316611767170148e+00 -1 -2 1
3489 1 1.8396817385353852e+00 2.9020957957035760e+00 -7.7210939272743850e-01 -2 2 0
5906 1 6.4039849297264508e+00 4.9457262259613222e+00 6.6350607587431814e+00 2 5 0
533 2 5.9633854733929859e+00 2.4066178333550425e+00 5.6593415125694850e+00 0 0 0
1142 2 7.6481338765569653e+00 1.2731459425823850e+00 6.5266337893691251e+00 1 0 0
2965 1 4.0382829887895948e+00 1.9649921392597540e+00 -2.1140179784083446e+00 3 1 0
3231 1 2.1224102558746982e+00 3.6956409215571631e+00 -2.2448360615433884e+00 -3 -3 1
304 2 5.9773414048763405e+00 4.1333386253095350e+00 3.9717428368028287e+00 1 0 0
91 2 9.3966115354879758e+00 1.5962703327019714e+00 5.2624716004901391e+00 0 1 0
4518 1 7.4738925762613695e-01 4.5173227825075468e+00 7.3405437907395559e+00 1 -1 2
5374 1 8.5696879021177015e+00 2.2774622347561397e+00 6.2273934254869303e+00 1 1 1
1373 2 8.4896916273066214e+00 3.4304996495607569e+00 6.1403976274621588e+00 1 1 0
5153 1 7.3838334367843199e+00 3.0782980556063966e+00 -6.8079859651922980e-01 0 -1 1
5498 1 7.8506498515424221e+00 3.7913574203081524e+00 6.7518344362692950e+00 -5 1 -1
5227 1 2.3287058815670143e+00 2.3268201189913875e+00 -2.9384202707400542e+00 2 2 -1
5527 1 6.9928365905022156e+00 1.6892718782438623e-01 5.8795676407462665e+00 1 5 0
5750 1 3.6591380381782237e+00 4.3152401369520481e+00 6.2850971650842151e+00 0 1 -1
4067 1 3.5376099127492564e+00 3.8205326269798014e+00 -2.8097367664634683e+00 2 2 0
3900 1 3.8485875159815537e+00 5.2761947750996789e+00 -7.8294001593965135e-01 5 -1 2
5345 1 8.1311550873831333e+00 4.8088792352633575e-01 -3.0307926753766523e+00 0 2 0
4519 1 9.1200516789330210e-01 3.2351115315437009e+00 -3.1039516137498637e+00 0 -1 -1
1062 2 2.7939278405775738e+00 1.6609464229901545e+00 1.1535499376247174e+01 1 0 0
1591 2 2.9333494080654114e+00 1.8018921799980914e+00 8.8849580050135746e+00 0 1 0
424 2 6.1290777193887438e+00 4.2611369050384535e+00 1.6575024747685269e+01 0 0 0
873 2 4.7484525406408702e+00 2.8891353716954322e+00 1.0543797965030873e+01 0 0 0
1096 2 1.9481473983591706e+00 3.2112819352242963e+00 9.9040726764715643e+00 1 0 0
863 2 1.6458329357715646e+00 3.4423100249758529e+00 1.2301840713597590e+01 0 1 0
5989 1 6.6878515893911583e+00 6.7085442913466006e-02 1.4328163849176374e+01 5 1 0
3069 1 6.7665413828994039e+00 2.9137568541664005e+00 1.2817702850836120e+01 2 4 2
2145 1 5.6872408860682944e+00 1.9328123498956409e+00 1.0274293165948283e+01 0 2 0
83 2 5.1582704357247238e+00 1.5966855796308359e+00 1.2591570790240381e+01 0 0 0
1087 2 5.1624934721561377e+00 2.4607410524701763e+00 8.0732310204601294e+00 1 0 0
21 2 1.5537921493034901e-02 4.0448921202436106e+00 1.0785161962356126e+01 1 0 0
43 2 4.5027539753437438e+00 3.3312499910422988e-01 1.0228627216891365e+01 0 0 0
113 2 1.0003994664191318e+01 4.1129509921831020e-01 1.7982526529214887e+01 0 0 0
5996 1 4.4558302522119897e+00 1.2904357350794042e+00 1.4738109362832596e+01 1 -4 1
4487 1 1.2727893325884638e+00 4.1362766667319075e+00 1.7154287480442207e+01 2 -2 2
1859 2 1.3245435322540982e+00 6.0736799290223520e-01 1.0010621663057178e+01 1 1 0
4089 1 1.5831176024999642e+00 2.3445068111757392e-01 1.6977634148877186e+01 1 -3 0
585 2 3.4698557021198204e+00 4.2493912833540444e+00 8.6443284206186117e+00 0 0 0
2106 1 2.2650217957792522e+00 3.3801380829550545e-02 9.4401741390217886e+00 3 -1 0
348 2 1.2508374717911688e+00 8.0915025574227684e-01 7.9994953205422217e+00 1 1 0
3348 1 7.5226158028164036e+00 1.2205798376667409e+00 7.6598293893701257e+00 -2 4 -1
2380 1 4.4395629879982605e+00 4.4205120492195160e+00 1.0181858842122068e+01 1 -2 1
2090 1 7.3482458404428392e+00 4.0551069090107701e+00 1.2282972532559016e+01 -2 2 0
3340 1 9.0326121875173160e-01 3.9462642837575368e+00 1.0464892375129150e+01 0 1 0
904 2 7.3841443873200570e+00 1.1436519019445605e-01 1.5171553040896605e+01 0 1 0
903 2 7.2916847075706164e+00 7.4666177437814973e-01 1.7921663014358469e+01 0 1 0
3521 1 3.7741155341124117e+00 1.5317873266308781e+00 1.1954572001124108e+01 -1 0 -1
792 2 2.5039192180159203e-01 1.9900489736718996e+00 1.1501993146672344e+01 0 1 0
3379 1 8.7634943552892253e+00 4.5126750774163975e+00 8.6644101729364102e+00 0 2 0
3083 1 6.2236861618205888e+00 1.5334908544430656e-01 8.6206430879387081e+00 -2 1 1
2517 1 3.1818329764451994e+00 2.1455047379335883e+00 1.0769984221347555e+01 -1 0 -1
3754 1 5.3921633288959665e+00 3.3391896119955105e+00 8.6057953892053156e+00 -3 2 -1
2062 1 9.2050399145261501e+00 3.1112492426192784e+00 1.4952466362459791e+01 2 -2 -2
2608 1 4.2777242715751216e+00 4.8604394439299439e+00 9.1809919355634229e+00 1 0 0
1110 2 1.5696896987857625e+00 5.9413923493863471e-02 1.2458401426893888e+01 1 0 0
5161 1 7.3697896072569735e+00 4.9202337570072547e+00 1.3394826356613756e+01 3 -1 0
2880 1 3.8851879519179566e+00 1.7663954385131106e+00 8.9966103301804310e+00 1 3 1
5214 1 1.4130530775170467e+00 1.7655840107981824e+00 1.7114047559969350e+01 1 6 0
4511 1 3.7291858837921041e+00 3.1654449598829397e+00 1.0389327387040360e+01 2 0 0
969 2 1.7281340386828217e+00 8.2335079675317935e-01 1.7780574511788647e+01 0 1 0
4058 1 8.7658888962779375e+00 1.0929001644807416e-01 9.0571213201168224e+00 1 -2 -2
5512 1 1.2527487551581222e+00 3.9702765448784538e-01 1.1014424725947810e+01 3 -2 2
4041 1 5.3180466031667226e+00 1.3893061557563280e+00 1.7921981895260082e+01 -4 -1 1
2480 1 2.7424344446932798e+00 1.9080841879017321e+00 7.7961240421652178e+00 -1 -3 1
2800 1 1.0389079149449632e+01 3.1705474134692984e+00 8.3288259656401227e+00 -1 -1 -1
4141 1 1.2094654186065785e+00 3.4384280069542439e+00 9.3704835128785149e+00 0 0 0
5407 1 1.0172675382794333e+01 4.7548206621297489e+00 1.6673581233501263e+01 -2 -1 0
4657 1 5.0238059757013724e+00 2.6658494618491697e+00 1.1777575160714857e+01 2 3 -1
3012 1 6.8418759410304322e+00 1.5257712416970148e+00 9.8824114089759885e+00 -4 0 0
3767 1 6.9835699447394557e+00 5.1372490792955636e+00 1.7779992502043687e+01 2 -2 0
3143 1 2.2096844120500516e+00 9.1316887144761505e-01 7.7256514959119507e+00 0 4 0
5836 1 9.8487274746507030e+00 1.5705658623474841e-01 1.1510499008447329e+01 -1 1 -1
3129 1 5.8714901187510926e-01 1.1319216687967308e+00 1.7883941705288645e+01 0 2 -2
5663 1 9.0276529003262738e+00 2.9927727223852854e+00 9.2058849535147260e+00 1 2 0
2886 1 6.7992129442169151e+00 3.5372097509753253e+00 1.7073967640277431e+01 -1 -1 2
5625 1 1.0035020589126002e+01 4.2702143911387127e+00 1.2599929693621792e+01 0 3 1
4828 1 3.2877419212455230e+00 3.8759603233616016e+00 1.2030771297549757e+01 7 -2 -2
5871 1 3.1963101925275463e+00 4.3845752199965498e+00 1.3551034593335324e+01 6 0 1
2484 1 6.3333736099996851e-01 1.2082144679844247e+00 1.6059736387051323e+01 2 -5 1
2757 1 7.2736093641054254e+00 3.0789517302253571e+00 8.8799911332713108e+00 -1 -3 0
2820 1 1.0386272952165138e+01 4.4933455297982832e+00 1.5530060647579308e+01 3 2 0
1116 2 6.0422737771178499e+00 3.5902103733111876e+00 1.2660004868193635e+01 1 0 0
4460 1 4.9993736749927224e+00 4.5542615319636397e+00 1.4723592450513518e+01 2 -6 2
3545 1 8.9668112185514082e-01 3.6550545173083568e+00 1.5009911362404338e+01 0 1 0
5472 1 3.4951209992314238e+00 3.1075533794568861e+00 1.4424230435199657e+01 2 -2 -1
2632 1 3.2344247201939691e+00 1.5536723075941310e+00 1.4670212726237132e+01 4 2 1
97 2 1.0290523034744139e+01 3.3925120705700906e+00 1.2517046748660484e+01 0 0 0
1926 2 7.1915280167620335e+00 1.2736617279016329e+00 8.6701911047377820e+00 0 1 0
876 2 7.1276425035474373e+00 3.3311190723260555e+00 9.8754418027879307e+00 0 1 0
359 2 9.0147928443693868e+00 9.9945644633673203e-01 1.0324991653693321e+01 0 0 0
317 2 9.4537823728647279e+00 3.2035096284793214e+00 1.0190781619361475e+01 0 0 0
112 2 6.4227564525687351e+00 1.4201958552724183e+00 1.0741075316881080e+01 0 0 0
1122 2 8.2090704229063345e+00 2.4931638918411698e+00 1.2005191936260371e+01 0 0 0
3281 1 8.1545332432180757e+00 1.7382774415497644e+00 1.7988333958878350e+01 2 4 -1
5877 1 6.9249496838039954e+00 1.1723786565908239e+00 1.1861886573982233e+01 0 2 -1
3772 1 9.3803690846512069e+00 2.9068829388327906e+00 1.2087855498448564e+01 -3 3 0
4076 1 8.7351393384767615e+00 3.8090784660892361e+00 1.0797317068665466e+01 2 4 0
3555 1 9.2278738273598631e+00 1.7314168925337639e+00 8.0172285918274913e+00 0 1 0
5834 1 1.0586295452088915e+01 2.4044615594274372e+00 1.6070979003472733e+01 2 1 2
931 2 5.5405732029366206e+00 1.9132639740738198e+00 1.6537957703524643e+01 0 1 0
3917 1 6.2881610158165735e+00 3.6666469833425879e+00 9.5909778126539145e+00 3 -3 1
4919 1 9.6008941690466241e+00 1.2207442881305746e+00 1.3645701101040824e+01 4 1 -1
1054 2 8.3830245356504349e+00 4.4831993957329503e+00 1.1499949382640416e+01 1 0 0
573 2 9.0801784640018397e+00 2.6362716981682288e+00 8.1835118802143700e+00 0 1 0
1871 2 7.9530403205178777e+00 5.1878025993642956e+00 9.4191287383284497e+00 0 1 0
590 2 5.5556503736232852e+00 4.8855760307400127e+00 8.7150358648965565e+00 0 1 0
556 2 3.7569425226727842e+00 5.2082738140311822e+00 1.0500590674735040e+01 0 1 0
4589 1 7.8082126027689780e+00 4.0113061462265733e+00 1.4579391741903766e+01 -3 -3 1
2051 1 2.8405278999530381e+00 2.8781703769487419e+00 1.2771064608429866e+01 1 1 0
15 2 8.9657624195768122e+00 5.0282644256718241e+00 7.5891123964777041e+00 0 -1 0
5005 1 3.3701106301593184e+00 5.0539912628942689e+00 1.1392079219399488e+01 3 -1 -1
358 2 1.8228194900960282e+00 4.6550616022290719e-01 1.5190307984484711e+01 0 0 0
6030 1 7.7624395172019378e-01 1.8081219371715631e+00 1.4748762125988513e+01 3 0 3
82 2 1.5038058083903281e+00 3.7105159329608481e+00 7.8371283321317371e+00 0 0 0
5465 1 2.5483708714762470e+00 4.2156020681933173e+00 9.6100256085600417e+00 0 -1 -1
2237 1 5.9771818133796808e+00 1.9401081050731050e+00 8.4490158493732981e+00 0 -1 -1
5000 1 8.8886184896164107e+00 4.8252388124261252e+00 1.2891458942126292e+01 2 0 1
4179 1 7.5236269553832642e+00 1.4709687780495809e-01 1.1145763006816971e+01 1 4 0
1504 2 5.7684429260362826e+00 5.2223331440795739e+00 1.4767606147665969e+01 0 0 1
5031 1 1.0181346750411668e+01 2.7406475601975955e+00 1.0688298941493269e+01 -3 -3 1
1566 2 1.0644914377962616e+01 1.4256454568320802e+00 9.0606789529963017e+00 0 1 0
4750 1 1.0328708276122072e+01 1.8635506024089310e+00 1.7754281239207817e+01 -4 0 1
4770 1 4.5612919588863221e-01 4.0681146701229709e+00 8.3638125440771454e+00 2 0 1
4920 1 2.3252803082913009e-01 4.1968301835376876e+00 1.1549880410395698e+01 -2 1 0
594 2 1.0222723418042545e+01 5.1632431579939031e-01 1.2280577249922137e+01 0 1 0
3271 1 9.5599250423723470e-01 2.8142454824172862e+00 1.2999547781164328e+01 0 0 0
5682 1 2.3510983844269271e+00 4.2904748123924152e+00 8.2965116028255519e+00 2 -2 -1
5831 1 1.9011083379630438e+00 2.1850870864064853e+00 1.2008894186461527e+01 -1 0 -2
3199 1 7.6683397367147181e+00 2.6877716614466740e+00 1.5080636625736279e+01 0 3 -1
2372 1 1.7141939466288978e+00 4.5794390541476533e+00 1.2482443157860947e+01 2 3 -1
4180 1 5.3353534263726647e+00 8.3013159092937838e-01 8.6544284469664152e+00 2 4 -1
4392 1 1.7912534106669828e-01 2.7569601775372221e+00 1.2253033076883037e+01 1 -3 0
3789 1 1.6749427264159851e+00 2.7203253747118423e+00 7.9424275423742365e+00 -1 -1 0
896 2 3.2429628482880819e+00 4.5403656956907810e+00 1.6179376411676028e+01 0 1 0
95 2 3.7634865962154103e+00 3.5470682364020529e+00 1.2610596026214363e+01 0 0 0
4081 1 8.6158025704995378e+00 1.6083026983357640e+00 1.2086765448188963e+01 1 3 1
1602 2 7.3714921181815338e+00 3.0634653741740908e-01 1.2404665435920048e+01 0 1 0
155 2 7.7126439128778630e+00 3.4200430960594357e+00 1.5593758803330246e+01 0 0 0
5338 1 2.3825469726915944e+00 4.3785842585689396e+00 1.5913863597595686e+01 2 3 -1
1158 2 7.6276601475074457e-01 1.8062115740089024e+00 1.3569257905731558e+01 1 0 0
5973 1 2.0034089540207609e+00 2.2197841506131355e+00 1.5853998189309561e+01 1 -1 0
881 2 4.7952024716526260e+00 6.3517894019032595e-01 1.8140690588779506e+01 0 1 0
897 2 1.9630920914484717e+00 3.1925774192939240e+00 1.7747528235299384e+01 0 1 0
879 2 7.3682148900035971e-01 2.1346538202889396e+00 1.5933894403317549e+01 0 1 0
345 2 3.1668905833252965e+00 1.4101370427521316e+00 1.3677555389473284e+01 0 0 0
1297 2 4.7020909349495046e+00 3.1362948289444605e+00 1.4835373786846567e+01 1 0 0
129 2 5.2769964713609752e-01 3.9860144299935958e+00 1.4244482385177438e+01 0 0 0
891 2 3.1473699492107476e+00 1.6931716273591273e+00 1.6298802842095494e+01 0 1 0
108 2 2.5165695679590061e+00 3.1528174084271705e+00 1.4544202092443701e+01 0 0 0
110 2 4.4884757619443318e+00 3.5244784163913616e+00 1.7488296451642388e+01 0 0 0
877 2 7.8036526641564397e-01 4.4402609238998192e+00 1.6278746661640437e+01 0 1 0
907 2 5.0280152000718124e+00 5.7381363006352748e-01 1.5019677985705609e+01 0 1 0
895 2 2.5710443018504052e+00 5.1346917440039244e+00 1.3691497815756300e+01 0 1 0
3852 1 4.1952631623950483e+00 4.6280556626624403e+00 1.7309816460697885e+01 1 4 0
2582 1 1.7482570119576990e+00 1.4889577236225504e+00 1.0447547676386803e+01 0 3 0
4823 1 8.5221648581891618e-01 1.3215382442662478e+00 8.6830148609066669e+00 1 -1 -1
3187 1 2.5814356616327352e+00 7.0900519305134402e-01 1.3571203002021957e+01 2 2 0
6027 1 9.6861324516565901e+00 1.4191414668399607e+00 9.5900394887448410e+00 0 1 1
2168 1 5.5085888951631068e+00 3.4298996856995712e+00 1.5997435616273474e+01 2 2 2
862 2 6.7468115644983691e+00 2.0706948264172742e+00 1.4009028418451038e+01 0 1 0
5862 1 6.0685479412884851e+00 4.9949581508146341e+00 1.5737867315467788e+01 0 3 -1
4636 1 5.1198124303265642e+00 1.1856923046998142e+00 1.3454019945143799e+01 3 6 0
3483 1 3.9890586798071186e+00 4.4239519715330311e-01 1.1369146975809356e+01 3 1 -1
3371 1 6.6941028601420003e+00 1.5362823192230362e+00 1.3120038034423732e+01 2 -2 -1
3456 1 1.0983589826647837e+00 4.7521203310366928e+00 1.3845100485936204e+01 -5 -1 -1
4595 1 3.9061875694303598e+00 3.1079004542440454e+00 1.5650188352259242e+01 2 -6 0
2325 1 8.3063440599396667e+00 2.0873630947057480e+00 1.3676236333413428e+01 2 -1 0
102 2 8.5672109291686027e+00 1.6216175907902557e+00 1.6406246698369824e+01 0 0 0
4227 1 8.1571046479924831e+00 3.3443210545918176e+00 1.2888688580258425e+01 2 1 1
4731 1 5.1525214220080295e+00 2.9573916658848152e+00 1.7483258341713736e+01 1 1 1
5371 1 1.0488418985433059e+01 2.1075593770991743e+00 1.4205911771996622e+01 4 -2 1
2439 1 9.6239413062894545e+00 1.2858364860846918e+00 1.5297894181929337e+01 1 -2 -1
3922 1 8.9354441485918628e+00 2.4076813082247090e+00 1.6814908685275643e+01 -4 3 -2
2783 1 8.6701310539504881e+00 5.1057660446119488e+00 1.5106828888837256e+01 -2 3 0
3164 1 7.0091346880649912e+00 2.0981194189144907e+00 1.6563015064342657e+01 1 6 0
1077 2 1.0321790137339363e+01 3.2892485189791181e+00 1.4969598074996174e+01 0 0 0
5499 1 6.0004546138160375e+00 4.2015025529291803e+00 1.3488302504020410e+01 -2 4 0
5392 1 5.4159386952199293e+00 2.9858564345830580e+00 1.4122240243431325e+01 -1 -4 2
4145 1 7.1940446410483805e+00 3.4389711836941643e+00 1.1111693137282577e+01 2 0 1
1136 2 9.6291887263266602e+00 3.7161357814749834e+00 1.6974319164672597e+01 0 0 0
4394 1 8.0478121249276970e+00 7.3815446511899707e-01 1.5732939772974547e+01 1 3 -1
3025 1 3.7247096391683883e+00 3.7978969391809971e+00 7.8064284272303635e+00 0 -1 -1
2976 1 7.3669790751344255e+00 5.1828882356421708e+00 1.0323205188567560e+01 -1 -4 0
5563 1 6.4751327820469662e+00 2.0050253276352512e+00 1.4929206283054675e+01 2 3 1
4300 1 6.6559722539178257e+00 1.2338112981609146e+00 1.7461955902795655e+01 3 -1 1
3314 1 1.8106548909939322e+00 2.6667174931082713e+00 1.4099443521596839e+01 5 2 -2
569 2 5.9831056307230428e+00 4.4738875677661953e+00 1.1103772224528372e+01 0 1 0
4501 1 8.3704369915611867e+00 3.3873690071304505e+00 1.7815394276428353e+01 -1 -1 0
4862 1 2.6618374571627275e+00 3.1391839893063587e+00 1.7160388825769505e+01 0 -3 1
3650 1 7.0855261227533397e+00 4.8661741585134815e+00 8.7917428759699661e+00 -3 3 1
4948 1 1.0513181985667908e+01 3.9771683738031576e+00 9.7540576281568470e+00 4 -1 0
2271 1 4.7988594945877070e+00 1.3390119047339450e+00 1.6485427842770481e+01 4 -3 0
1898 2 8.9775475611674498e+00 1.6870891775988295e+00 1.4092816242422032e+01 0 1 0
1596 2 8.2925324834763803e+00 4.3570771995055981e+00 1.3616491427167226e+01 0 1 0
1911 2 1.0297150907459063e+01 5.1000507635101078e-01 1.5699245489567531e+01 0 1 0