LAMMPS data file via write_data, version 5 Jun 2019, timestep = 400000

6144 atoms
2 atom types

0.0000000000000000e+00 2.2348500000000001e+01 xlo xhi
0.0000000000000000e+00 2.2348500000000001e+01 ylo yhi
-4.2910362423087847e+00 4.0885920702750475e+01 zlo zhi

Masses

1 1.008
2 15.9994

Atoms # atomic

1059 2 4.2974875292194170e+00 2.0057158226411267e+00 -9.4918981184483009e-01 0 0 0
19 2 6.9002725288236466e-01 1.4545447858744824e+00 -2.0856788610837551e-01 0 0 0
747 2 2.2884265158715076e+00 1.8901449199643230e+00 -2.1707890509234975e+00 0 1 1
72 2 1.3170277804418751e+00 3.7587110970515689e+00 -9.6237165683221670e-01 1 1 0
214 2 4.4065784994877939e+00 2.1980582439499137e+00 -3.4179864945641749e+00 0 0 1
3140 1 1.9615319745399415e+00 3.4233987869590639e+00 -3.4876156343839293e-01 -1 -1 0
1486 2 1.4315251542888592e+00 3.9535698887933415e+00 -3.3907717532835866e+00 0 0 1
4853 1 1.0023165604956417e+00 9.2037796211327247e+00 -7.8914568306908173e-01 0 -3 0
4232 1 9.6465451658942669e+00 6.4398080522066712e+00 -4.1113825400438877e+00 1 1 1
360 2 4.5926304407628588e-01 6.7044402143885566e+00 4.0214110537230230e-01 0 0 0
5295 1 4.2919193890907321e+00 5.9224409310829715e+00 -2.0611177226991582e+00 2 0 -1
5109 1 8.6599003346210033e+00 9.5499632190841730e+00 -3.7908682609472422e-01 1 0 1
1243 2 3.8179153765076284e+00 4.7613793288723878e+00 -2.7007295463343794e-02 0 0 1
2729 1 2.5122579624740604e+00 9.8240787313385685e+00 -2.2246599685927597e+00 1 1 1
3198 1 7.7189130357190816e+00 6.9997498052356146e+00 -1.0285210607309119e+00 1 -3 0
5396 1 2.7988837170775893e+00 1.0808398107683654e+01 -2.0126660842267974e-01 1 0 3
5084 1 1.0943124160114627e+01 2.8358725231585633e+00 5.2617473223732691e-01 2 -1 2
3235 1 2.4570897185631684e+00 7.7736475839991979e+00 -3.2015032061236992e+00 -4 -2 1
5674 1 5.5077181890279459e-01 4.6935744325329454e-01 -2.8618782425125340e+00 1 4 0
829 2 5.7061412379289536e+00 1.3786410471882060e-01 -3.7912075886457317e+00 0 1 0
3035 1 1.5416508987068660e+00 3.1699855379807391e+00 -2.9404565921423744e+00 3 0 1
5051 1 7.8076598326820781e+00 8.4538560583129225e+00 -1.7912473655203907e+00 -1 0 1
4608 1 5.6579929886468039e-01 9.5439594848246827e+00 8.5850176504748976e-01 3 -2 1
5977 1 8.3492167906523225e+00 1.0984206845696018e+01 -7.5184824139506112e-01 1 -1 0
4832 1 1.0924571871089677e+01 1.0046296101240079e+01 -4.3439789065927537e-01 -2 1 1
3672 1 6.9572406542535523e+00 1.8192793564530099e+00 -9.5616122824138827e-01 -1 -2 1
5728 1 2.8470100362656798e+00 2.8067182883324310e-01 5.6636326865558217e-01 -2 0 -1
5598 1 5.8676570451524466e+00 6.7150297858649868e+00 -3.0305949489858106e+00 2 3 1
474 2 8.1982268523350825e+00 1.0086185576886388e+01 -1.3279879424170966e+00 0 0 1
2208 1 5.6862209410240521e+00 9.8317123185538495e+00 -3.5478489023787700e+00 0 -1 0
5479 1 2.5257125405394032e-01 8.6578506166900340e+00 -1.9069595706928655e+00 1 1 0
1043 2 2.4004567180218443e+00 1.0231451599986453e-01 -4.0339307699249254e+00 1 0 0
1569 2 2.2952760810876578e+00 6.0442433004573699e+00 -1.5954554339005540e+00 1 1 0
2377 1 6.9173326666190444e+00 1.0901258605281310e+01 -1.2077978110569623e+00 1 -2 1
2080 1 4.2571827086976821e+00 1.3344835319804340e+00 2.7611141980139564e-01 3 0 -2
1594 2 3.3176654451352037e+00 3.8939506344375912e+00 -2.4247368999250458e+00 1 1 0
2717 1 2.1181528677915193e+00 5.3350913750125430e+00 -3.1427335903457685e+00 1 3 0
2649 1 2.4250023000112595e+00 4.0511041885226255e+00 -2.0003730391095775e+00 0 -1 -1
4410 1 9.0596692202748770e+00 3.9109819719375096e+00 -1.0461449596151242e+00 -2 3 1
2492 1 1.8154216711771693e+00 2.1061501233728497e+00 6.6258375396407132e-01 0 1 1
3679 1 7.2029813530584397e+00 9.2531043653147016e+00 1.6083223875030050e-01 1 0 -1
5698 1 8.2043603983528772e+00 8.0235354800594170e+00 -3.3760875975126523e+00 1 -3 1
2977 1 6.7076096770095193e+00 9.3075835454797939e-01 -2.1757249557566638e-02 2 1 1
5861 1 6.8494200056271115e+00 3.4939418571266451e-01 -3.2350697885201294e+00 -2 5 -1
4649 1 5.9393511419600795e+00 3.3210152822287964e-01 -1.6818838869254029e+00 1 -2 1
5102 1 9.4049275748058037e+00 4.6540966444795329e+00 6.2554293812314476e-01 -2 3 2
3497 1 1.0358167595340960e+01 8.4067072682093986e+00 -5.5874559167963866e-01 2 0 1
1462 2 3.3093403827387764e+00 9.8066235091696763e-02 -1.8844303064712826e+00 0 0 1
4912 1 1.0529218363704242e+01 2.0344449793048467e+00 -2.9311118963492193e+00 -3 0 0
4388 1 6.1879411699361757e+00 3.8091051295155860e+00 -2.3818935808169446e+00 -1 -2 0
1343 2 1.1275315676254138e+00 1.1025234538512439e+01 -1.8957790882534047e+00 0 0 0
4612 1 3.6447126060079773e+00 3.0501986432298258e+00 -2.6695590987474649e+00 0 -1 -1
1308 2 1.0104576352684274e+01 1.1135429511110102e+01 -1.0712207451590370e+00 0 0 0
5637 1 9.3412024977047672e+00 6.8812164004204952e+00 9.6306135332284981e-01 0 -1 -2
846 2 5.0321115335501014e+00 2.4228718191395990e+00 1.0291065215378232e+00 0 1 0
545 2 7.7344639481587176e+00 7.9756004969070859e-01 1.1799836259976981e-01 0 1 0
2674 1 6.8064096694077145e+00 5.2242956894318624e+00 1.0261407279029253e+00 0 1 0
3703 1 8.0141791227475476e+00 2.8459871616002497e+00 -2.5461916790172352e+00 0 1 0
3966 1 6.7180659959580149e+00 7.9718897267386231e+00 -3.1287152742395579e+00 0 2 -1
5621 1 1.6147535012733112e+00 2.0358579913806119e+00 -3.6493869012530573e+00 1 1 1
1305 2 6.3386213093291284e+00 1.9003602016954335e+00 -1.8615140053374875e+00 0 0 0
1831 2 2.9134595067954909e+00 1.0776752355272960e+01 7.6856102676328941e-01 0 1 0
1881 2 5.7669390116091206e+00 4.0290686628458765e+00 -1.3873347455676392e+00 1 0 0
4844 1 7.0974154956359374e+00 1.7578765745203884e+00 1.1576903986822664e+00 -1 -2 1
1905 2 9.9992489442708745e+00 1.3401346864725605e+00 -2.0112477747906108e+00 0 0 0
1756 2 8.2872259547502338e+00 5.0980111598817999e+00 -3.1244249950280136e+00 0 0 1
1115 2 8.5670022598919608e+00 3.0926138724256020e+00 -1.0243366007915102e+00 0 0 0
5882 1 1.0896428173743029e+01 5.7545483036039871e+00 -4.1531093441495015e+00 1 0 0
2968 1 8.4589564566862361e+00 1.9703244270173961e+00 -3.2431642279486939e-01 -3 -1 0
1636 2 6.6812315688791060e+00 4.1533570514880696e+00 5.6414805548445113e-01 0 0 0
3813 1 7.7806706853131926e+00 5.0596286604637664e+00 -2.2877515985048724e+00 -3 2 2
1987 2 5.8728185652062557e+00 4.1054599592608607e+00 -3.6821241886787321e+00 1 1 1
728 2 9.0767739874126239e+00 5.1859561795898843e+00 -5.9892746899345894e-01 1 0 1
235 2 8.2289258814017927e+00 2.0970741879509158e+00 -3.1363915353431273e+00 -1 0 1
5250 1 9.0044697035065937e+00 5.8746441481385965e+00 -2.7051676247672214e+00 -1 3 0
60 2 1.0293153228746357e+01 4.5893748187724732e+00 -2.7750010003127139e+00 0 -1 0
5404 1 5.5553665222781214e+00 1.9884797511306709e+00 -1.1953707726270988e+00 3 0 0
4127 1 7.5450296424727741e+00 3.8197580814692018e+00 1.7786373355647545e-01 2 1 -1
3364 1 1.0660449298926421e+01 3.4861038510061393e+00 -3.6436783282291736e+00 -4 2 1
3606 1 7.1390045415609016e-01 6.1330668721953474e+00 -3.9709763125660396e+00 -3 1 -1
2993 1 5.0820867629120183e+00 3.1365964022522164e+00 -3.8065172991847112e+00 1 -1 0
2701 1 5.8578588418033553e-02 2.0193279318308770e+00 -2.7017514305002175e+00 -1 2 0
1605 2 3.9830825070882918e+00 4.4020621093175943e-01 4.9536805240998927e-01 1 1 0
2983 1 6.8130834859153824e+00 1.0441602920628803e+01 8.7928177886639425e-01 0 0 1
4598 1 9.5520439115267539e+00 2.5086099450911479e+00 -1.5500116746635304e+00 1 -3 1
2227 1 4.6852179869172597e+00 4.0665121318655046e+00 -1.7057962649248801e+00 1 0 -1
3773 1 4.9617721172130693e+00 1.4597869128340659e+00 -3.7733386759122549e+00 -3 -1 0
3828 1 8.1985517386061861e+00 5.5436557931390231e+00 -2.0603140652567919e-01 -1 3 1
5632 1 1.0209529793366036e+01 4.2956319210349196e+00 -1.8629358924458930e+00 0 -1 1
2720 1 1.0126950010105228e+01 8.6327404212072718e+00 -3.6909151261925555e+00 -1 -1 2
2817 1 1.6420601187477188e+00 3.8162180924289153e+00 1.3217569783845748e+00 1 0 0
4194 1 2.7919251156000384e+00 9.1758128740102567e+00 -3.7478837119679245e+00 0 -3 1
2864 1 3.8386570797209956e+00 1.4670751781098277e+00 -1.6590085651635555e+00 0 4 1
1489 2 2.7512567574592222e+00 2.2252277671992902e+00 6.2477734748021252e-01 0 0 1
3701 1 6.2402775215703841e+00 8.7181328731061729e+00 5.8700184581016579e-01 3 0 0
1608 2 3.7509934827006872e+00 1.0895161193404009e+01 -4.2566880468296295e+00 1 0 0
1589 2 1.0133973856086420e+00 8.3770978504107418e+00 -1.4363651946816742e+00 0 0 0
4373 1 4.0214684376928895e+00 5.9779346589669782e+00 1.4150982192339612e-01 4 2 0
3441 1 1.0400561671955706e+00 9.2077378488692965e+00 -2.9272304901179940e+00 0 -1 1
277 2 6.3161530368384460e+00 9.8771885612848873e+00 3.2734899510553639e-01 0 -1 0
5399 1 1.4642561728403625e+00 5.6815080498508479e+00 -1.5090442151639407e+00 0 1 1
4279 1 5.1373157639734268e+00 8.8150999926578280e+00 -2.0553430358736078e+00 0 -3 0
5641 1 9.6542618277435519e+00 1.0286120144830821e+01 -1.4706750725308213e+00 -3 0 1
1503 2 2.8603317373597710e+00 6.7595379058226452e+00 1.1278530056240319e+00 0 0 1
5792 1 1.7756824252481378e+00 2.7281420974141364e+00 -1.7069673023571306e+00 0 1 0
4746 1 4.5098780633622919e+00 7.7171616559463967e+00 -3.4903118097811272e+00 0 1 -1
3624 1 2.5317659234587038e+00 9.1377835317403235e+00 8.5787643281719905e-01 -1 -1 -1
1017 2 4.5588393426255855e+00 8.4712831102382768e+00 -4.0442368929214405e+00 -1 1 1
3652 1 2.7427484360900767e+00 8.5383760272104965e+00 -2.3040173383292051e+00 -1 2 0
5482 1 4.1843251686336904e+00 1.0162951291458858e+01 2.4618729112874238e-01 0 1 0
2234 1 3.5547965573242934e+00 8.5905283395552363e+00 -6.7450125214325274e-01 -1 0 1
359 2 1.5924570451222455e+00 4.8388994300511321e+00 7.8416158191185570e-01 0 0 0
3145 1 5.2153559049181837e+00 5.2824177725198638e+00 -3.4704624697511104e+00 -1 2 0
1373 2 2.1140899065060181e+00 9.6061111380394824e+00 -3.1488085902053502e+00 1 0 0
1974 2 4.4127349023541740e+00 6.9502066388277370e+00 -3.1959428367718479e-01 1 1 1
4251 1 3.7872895731188687e+00 2.8643427391586873e+00 -1.0299289883573497e+00 2 -2 -1
1509 2 3.4037875140043736e+00 7.9448545433873621e+00 -2.3526722231490154e+00 1 -1 1
718 2 6.0726079342095778e+00 8.9368023437588242e+00 -1.6677280712459148e+00 0 1 1
247 2 4.4746809083012513e+00 9.0831661205159246e+00 1.5041258146102621e-01 0 -1 1
1534 2 2.5225813163811739e+00 8.5402546121322533e+00 -1.0101953380716644e-01 1 0 1
22 2 2.7364839607951721e+00 5.9591882183784124e+00 -3.5882442175487723e+00 0 0 0
640 2 4.9045240911460635e+00 6.0309488594519935e+00 -2.8345769659764484e+00 1 0 0
3312 1 8.7898095993273522e+00 1.0943663203219094e+01 9.4793134772464427e-01 2 0 0
5704 1 4.1943875055770334e+00 7.6782281621792974e+00 2.2415664754652198e-01 2 0 0
3864 1 7.9373828604600405e+00 9.5802067305150587e+00 -3.8977899241173550e+00 -1 1 1
534 2 4.3105455222174394e+00 9.9844048491697581e+00 -2.0644188577853275e+00 -1 1 0
4326 1 3.1862263835320190e+00 7.1813477091420816e+00 -1.6032701120255575e+00 0 -2 -1
4298 1 5.9112837888560668e+00 6.0957704505790575e+00 -1.4450138454716375e+00 -1 0 0
3790 1 3.1873488390230267e+00 2.5818409636961281e-01 -2.9298982116291077e+00 -1 1 0
4477 1 2.9103348252567338e+00 5.5992773286041935e+00 -1.0694938472285140e+00 2 -1 1
1788 2 1.0794831422239382e+01 3.3872462547332800e+00 -2.4703637505080778e-01 0 1 1
4884 1 3.8002710219710982e+00 1.0647073136904126e+01 -3.1594837248482004e+00 -1 2 0
1274 2 3.3527925293750210e-01 6.3559885495056250e+00 -3.1522472147624554e+00 0 0 1
4246 1 9.3197448245941139e+00 1.7684365611742439e+00 -2.4584636029045281e+00 0 -1 0
495 2 6.6667168129558330e-01 1.0234948395382467e+01 1.7763291358774591e-01 0 0 1
4572 1 1.4351033175428540e-01 6.1427082500758621e+00 -6.0109811677357916e-01 0 2 1
6076 1 1.1102599718022926e+01 1.0049729463525683e+01 -3.7228565497880015e+00 3 1 2
3515 1 1.0449558268745998e+01 5.2385392701995768e+00 -7.7856682214684492e-01 -4 1 2
5699 1 3.6059310442878370e+00 5.6051232724675533e+00 -3.5528348760567074e+00 -1 2 0
1591 2 6.4639389036491499e+00 5.9535206266401941e+00 -7.0240916716128643e-01 0 0 0
4463 1 4.5419288748939157e-01 7.6806536147704252e+00 1.1491691099407388e+00 3 1 1
2611 1 1.1089756567775012e+01 6.8883171444359306e+00 -5.4218222832869190e-01 -3 0 -1
2355 1 1.0233365291934000e+01 7.5744813016357382e+00 -2.4867249568486898e+00 1 1 1
1577 2 6.5907405951056652e-01 1.1096321237925638e+01 -4.0552820735983772e+00 1 0 0
5611 1 3.3863088410279469e+00 4.5675586922050213e+00 8.7130478931172828e-01 1 0 0
4740 1 5.1576012984142572e-01 3.0985555178248236e+00 8.3811003102599102e-01 1 2 -1
4732 1 5.9479461407015788e-01 4.3232679929633333e+00 -3.6603695957109275e+00 0 -1 0
1552 2 9.3731864858909173e+00 1.0997203741259380e+01 -3.0504147230938745e+00 0 0 0
5619 1 9.0203820194174913e+00 4.4362144253783491e+00 -3.4880524159265427e+00 4 1 1
5548 1 7.3205572836545167e+00 7.2289834289194079e+00 3.5643125297147549e-01 -3 -2 0
5391 1 9.3739754922967737e+00 9.4518519598411643e+00 -2.3750042521924808e+00 1 2 0
4243 1 9.4437064423832950e+00 7.3273690469705377e+00 -8.1005059127709655e-01 1 -1 1
4069 1 5.4528259909636771e+00 1.0888596180615238e+01 -1.9875354408950958e+00 5 -1 1
613 2 1.1113414611277497e+01 2.4172911961081618e+00 -3.6461702491873567e+00 0 -1 0
1456 2 8.3327055492933937e+00 6.5602257891546589e+00 1.0559788678907065e+00 0 0 1
174 2 6.3118792794473455e+00 7.7558282795017224e+00 5.2320963901712947e-01 0 0 1
5126 1 6.1657008079597366e+00 8.0678450564560560e+00 -1.0111366391801462e+00 2 0 -1
884 2 8.7226762659411978e+00 8.9311284793710648e+00 -3.4899308497443551e+00 0 1 0
987 2 1.0088939411924617e+01 1.0172150505307503e+01 1.0250988436029500e+00 0 0 1
1567 2 8.3563180602047566e+00 8.9723938386421871e+00 5.5200162186099710e-01 1 0 0
312 2 6.5670342198175549e+00 1.0182476445289490e+01 -3.6542074503764410e+00 0 0 0
486 2 1.0215177929680507e+01 7.4176170699745363e+00 -1.4560391309915399e-01 -1 0 1
2603 1 2.0885696381496421e+00 7.9506751047001920e+00 -5.7521015474304749e-01 1 -2 0
3393 1 1.1111654838044387e+01 1.0618958673278436e+00 9.2460000954228150e-01 3 0 1
476 2 7.0002220455196369e+00 7.0042169913100469e+00 -3.2991395768751897e+00 0 0 1
808 2 1.0166126344810515e+01 9.0181220376732067e+00 -1.6453984435672000e+00 0 0 0
5854 1 1.0761637216859430e+01 9.5035154820628198e-01 -7.2029661409010171e-01 0 3 0
4897 1 5.6781176542327660e+00 7.3915042534687849e+00 1.1266162416362953e+00 -1 0 1
1465 2 9.8701222412100424e+00 6.8657330697874910e+00 -2.8254425380472012e+00 0 0 1
400 2 1.1127921000736075e+01 9.0918560681059013e+00 -3.9762881601367450e+00 0 0 0
3835 1 5.8522909455268772e+00 2.8144626002969511e+00 4.0590057054094864e-01 1 1 1
1041 2 8.0574038568295272e+00 7.7233549992667889e+00 -1.2990018180681369e+00 0 -1 0
3386 1 3.3078097029140663e+00 4.4984329236433744e+00 -3.0670858169509057e+00 0 1 1
2851 1 6.6949894490502908e+00 2.5795309365058037e+00 -3.9372718241778877e+00 -2 1 0
3470 1 6.8736605759641378e+00 5.0307271948355705e+00 -8.8522594183243619e-01 -3 -1 0
4111 1 5.4836836858990683e+00 1.0361614348585782e+01 -1.2584859570885953e-01 3 -3 0
3351 1 6.3773361928551586e-01 2.3174840203018348e+00 -4.2655243256093245e-01 1 2 1
4927 1 6.8088684912750630e-01 4.6100648538995914e+00 3.3378247364639080e-01 -1 -1 1
4998 1 2.3752844642317128e+00 6.7324485391557056e+00 1.9571433593876630e-01 2 1 1
2834 1 8.4341246873851681e+00 1.1135151826529984e+01 -4.1004265671788112e+00 -1 -1 1
52 2 7.1682023582927212e-01 1.0575107420942505e-01 -2.0293618259019572e+00 0 0 0
2122 1 8.8040972828470565e+00 2.8607204781479130e+00 -3.9775971532810144e+00 1 0 1
4736 1 1.5657753911768799e+00 1.4199099833941229e+00 -7.0958948572986147e-01 1 -1 0
4910 1 9.8717480898422174e+00 1.0374945226161564e+01 1.1778397756554604e-01 -1 2 1
5514 1 5.6668367880687560e+00 7.0224462504602203e-01 1.2541064559883246e+00 2 1 2
2435 1 2.2936590573458204e-02 1.1166335936585009e+01 1.1215522536994342e+00 0 -3 0
3303 1 5.2718402467377530e+00 5.6269362664536660e+00 7.5007401690225795e-01 -3 -1 0
553 2 1.0874456774343596e+01 5.9848963608042611e+00 1.2811617809864027e+00 0 0 0
3845 1 1.1142699233504567e+01 5.1208346996613949e+00 -3.0227937808340846e+00 -1 0 1
5583 1 8.6588505074274877e+00 1.1093000888382321e-01 -2.3536157656323518e+00 3 1 2
4322 1 1.0111570839686395e+01 1.1119478418039465e+01 1.1550027158604212e+00 -2 1 1
3696 1 1.0026580649787491e+01 8.3456698584092877e+00 1.3024387918282567e+00 0 1 1
4436 1 4.5947793902262113e+00 3.2781646153090076e+00 1.1046143401416657e+00 1 1 0
5789 1 9.3129545354922971e+00 1.3721254679106165e+00 1.2072930119837579e+00 1 1 -1
1613 2 1.2294294956126168e+00 5.0336343581529501e+00 5.5647870796880881e+00 1 0 0
1817 2 1.4678018365721606e+00 3.4838811955264806e+00 3.8250541855714975e+00 1 1 0
329 2 2.4936687076716565e-01 5.2974479294187722e+00 2.6043650232504207e+00 0 0 0
1096 2 2.4969971900844565e+00 2.6878255387356345e+00 5.8725311561299467e+00 0 -1 0
749 2 4.2889361876366676e+00 3.7502830697140253e+00 4.5712527467916075e+00 0 0 1
1299 2 3.5072917839066808e+00 1.9407321595225617e+00 3.1624900380317245e+00 1 1 0
4087 1 3.6780162451066851e+00 1.4420951300948202e+00 4.4964510326877676e+00 -2 2 0
552 2 3.9380623483711097e-01 1.5057040124858321e+00 4.2895925781250863e+00 0 1 0
882 2 4.2847630041465505e+00 1.0894106689671459e+00 5.1997073602993602e+00 0 1 0
2064 1 1.0801769496594352e+01 9.4364711026474577e+00 5.1807877098634965e+00 1 0 1
4671 1 7.4057215431035814e+00 3.3745241608471161e+00 3.4748223143991170e+00 -2 1 0
4749 1 7.2261845620297853e+00 4.1559179932125270e+00 1.5584291865293638e+00 -2 0 1
1796 2 3.3979370835058149e+00 5.7743814770996069e+00 5.5373203603313712e+00 1 0 1
1911 2 3.2226297114766393e+00 4.1522039935464230e+00 2.3367402071762955e+00 1 1 0
5756 1 3.8684768576008461e+00 4.1693448217914533e+00 3.7667753545714948e+00 0 2 1
4540 1 6.6257088259409391e+00 1.0742036470986685e+01 2.6236355930096238e+00 -2 -2 1
1991 2 5.7902419068643018e+00 1.4642882670460937e+00 2.9315008592256682e+00 1 0 1
4037 1 9.9780731647825291e+00 2.5696120102634303e+00 6.2017756725697186e+00 -3 6 0
3616 1 4.3832827998198685e+00 1.1094612834049805e+01 5.3273659601983905e+00 0 2 -1
2841 1 5.0887642351040894e+00 1.7760259265194080e+00 3.6960901837261169e+00 2 1 0
3742 1 2.4225409677214698e+00 4.7662113510870849e+00 2.4486953657574482e+00 3 0 0
4827 1 2.7026563972383028e-01 4.9258385691654585e+00 5.2959879626853059e+00 1 0 0
769 2 8.8177525254419331e-01 3.0031928182674017e+00 1.8486989239227913e+00 0 1 1
3465 1 5.2097725217043127e+00 1.6897615794141896e+00 5.3853461111082428e+00 -3 -1 1
5958 1 1.1075910364208575e+01 3.8899402744363658e+00 1.6322450157808053e+00 0 3 0
3937 1 3.7245265021372123e+00 8.8821206401430572e+00 1.5085869096726325e+00 -2 -2 0
2917 1 4.0125075711802678e+00 2.7943607431123310e+00 3.0905664499121679e+00 -2 -2 1
1495 2 1.8836822412378305e+00 7.1564263185778976e-01 2.2211654861490668e+00 1 0 1
3028 1 6.7918961687323032e+00 5.0397132004710317e+00 6.5187471187818460e+00 0 2 1
4937 1 1.0372639005121087e-01 5.1245380219729944e+00 6.8421707607445335e+00 1 -1 -1
3013 1 5.4701034779709872e+00 4.5709308450682649e+00 4.5762366725296850e+00 1 0 -1
2139 1 6.9998553072502601e+00 1.7721033170686740e+00 6.4643687760846511e+00 -3 2 -1
4255 1 9.8273113121007882e-01 4.8264670716849691e+00 1.9297294714676845e+00 2 -2 0
5283 1 1.5655516437776889e+00 1.1683286692094887e+00 6.3328880907382459e+00 -1 4 2
5739 1 5.0376535175354809e+00 6.9039005704931524e+00 5.5696158032108016e+00 -1 2 0
5806 1 2.7135498643829630e+00 2.0802005470411356e+00 4.0279130847670785e+00 2 -2 0
385 2 7.1042966609885516e+00 8.2636575751542125e+00 6.8699060930808269e+00 0 0 0
3213 1 5.3457204300795933e+00 1.0456798755160074e+01 1.6870031401304226e+00 4 0 0
5945 1 3.4475857165530837e+00 1.0706794848995003e+01 1.5502786814100249e+00 -1 1 0
4453 1 3.7953008693004078e+00 7.3611734515918770e-01 5.8728935668337172e+00 -1 1 0
5563 1 1.0395068782476152e+01 9.6944125429012384e+00 6.8662232692406810e+00 -2 0 0
3300 1 6.5686563720365720e+00 9.9132178432229345e-01 3.5411872356954266e+00 0 -1 1
1846 2 7.4816297112805410e+00 2.4637813806041424e+00 1.8128130393670601e+00 0 1 0
2711 1 1.0366736661770199e+01 2.3461649239658899e+00 2.9190996597533667e+00 1 -1 0
5453 1 1.1108477217056851e+01 9.4489007479085316e+00 4.0002159053946684e+00 -2 -3 0
617 2 2.2862276058159261e+00 9.9866178181936924e-02 4.6158763663307578e+00 0 0 0
5153 1 9.6953987007098270e+00 1.0680175120289736e+01 3.0933603934848186e+00 -1 1 1
327 2 9.1822336267881823e+00 4.3199732072800145e+00 1.6344631501350575e+00 0 0 0
2938 1 8.7247701961753048e+00 1.8885157443886780e+00 4.0659894674103807e+00 0 1 1
2278 1 4.6957941694903296e+00 3.7071211467877052e-01 1.4261405584527775e+00 -2 -1 2
3015 1 1.2369745824251590e+00 2.1939031855976894e+00 4.4775104562439161e+00 -2 2 1
6 2 6.2363672865517952e+00 4.4193667039534485e+00 4.9000183119587302e+00 0 0 0
3623 1 5.9719828834917772e+00 3.8059371159166755e+00 3.5410230733640118e+00 0 4 0
4839 1 5.7102844822152807e+00 2.7152338193258818e+00 2.4553683725679649e+00 1 -1 0
5036 1 6.6454324243936211e+00 3.5828717944271120e+00 6.2331254567477359e+00 0 -3 1
300 2 5.7325272406615486e+00 3.8803017397741275e+00 2.6740633674481380e+00 0 0 0
1051 2 8.1859946880578622e+00 3.8248554073953054e+00 3.7702639391151820e+00 0 0 0
1103 2 8.9808336898104191e+00 2.5170787189268156e+00 6.0144727741564274e+00 1 0 0
1989 2 6.4883773523246369e+00 2.0197962291372598e+00 5.5361643732010997e+00 0 0 1
1089 2 8.3517783381112132e+00 1.2933392849646534e+00 3.4471531907512913e+00 1 0 0
3421 1 9.3818608191874873e+00 3.2205603947049397e+00 3.4247999897255719e+00 -1 -1 0
114 2 7.9708552606015104e+00 4.7801111757361365e+00 6.2116277944760068e+00 0 0 0
51 2 1.0133508891634689e+01 4.9636115702480117e+00 5.0013863459137280e+00 0 -1 0
5326 1 7.9478382844570712e+00 1.8304074533533650e+00 2.4952631140971908e+00 0 1 0
5196 1 4.9965250543236168e+00 1.0058906804788892e+01 3.4440078606497320e+00 2 1 0
3996 1 6.2353402486752314e+00 4.7029545278548204e+00 2.5075349093239909e+00 -1 2 1
2561 1 8.1446394883223281e+00 1.0370566430524583e+01 6.0733270795598173e+00 -1 1 -1
1641 2 8.7226986987096815e+00 6.1464814250848621e+00 3.4469522782416915e+00 1 0 0
4399 1 3.1004031386757354e+00 9.6750393871165929e+00 5.5690215314273086e+00 3 3 1
3346 1 8.0491781342193196e+00 6.4633941065339107e+00 5.6404261583817661e+00 0 -2 -1
4644 1 3.1757299594749151e+00 6.6136639431103958e+00 5.0386674560888558e+00 1 0 -2
3398 1 2.6579057086114566e+00 7.1766575151406020e-01 2.9441791472444709e+00 2 2 0
5730 1 2.8588981663766333e-02 1.0315128993111768e+01 4.3764342080821628e+00 0 1 0
5212 1 9.8155936036490541e+00 4.8312194315754482e+00 6.3084744268597657e+00 2 1 -1
3642 1 8.5506715588086468e+00 2.8866703285816455e+00 5.1733311659367391e+00 0 1 -1
4390 1 2.0391240076443311e+00 6.7408089159027531e+00 1.6194182790744529e+00 0 -3 -1
880 2 1.0278167696539942e+01 6.5216397211195698e-01 6.8770614427491559e+00 0 0 0
2855 1 4.1053373533953543e+00 8.7471825250948356e+00 3.5057351626546920e+00 1 -1 1
3162 1 4.3939867383559159e+00 5.3168985990495186e+00 3.4732809512022236e+00 1 -4 -2
3107 1 1.1337450426292787e-01 8.4055719083340730e-01 6.8715383013328832e+00 1 -2 -1
1568 2 9.0623781260336300e-01 1.0917575189151766e+01 4.9660455745566026e+00 0 0 0
6031 1 1.0103960343452312e+00 1.5400612959123230e+00 3.2331210927473455e+00 0 2 2
585 2 7.3117057981770843e+00 8.0600625741066416e+00 2.9721003438713485e+00 0 0 0
6010 1 9.3275483603582074e+00 5.3368363643539452e+00 3.5928408878011862e+00 0 2 1
2127 1 4.4218254494938414e-01 1.5807136736562732e-01 5.2721329951343670e+00 2 0 0
3268 1 7.4602151944216395e+00 4.2844498236097692e+00 4.3066447177164466e+00 -3 1 1
2101 1 3.7739571925274400e+00 7.4493509819379335e+00 2.4500097030659207e+00 4 2 0
4044 1 3.5583593377741973e+00 2.8296729587867642e+00 6.1978045549721639e+00 2 1 -1
5321 1 1.0879973792828375e+01 8.5733873233361937e+00 2.6014577226876048e+00 0 3 0
2103 1 1.0157022319660176e+00 5.5748059440803939e+00 3.2820061780732548e+00 -2 -1 0
1497 2 1.1171385095942785e+01 1.1062489583020506e+01 5.4300835372689349e+00 0 0 1
4368 1 1.8112554128983274e+00 4.4797776125329518e+00 4.7020971198213442e+00 2 3 2
3472 1 7.8127877249970181e+00 3.8572193005769462e-01 3.6455601582595438e+00 2 1 2
1814 2 1.0630104660033352e+01 1.0473482507320112e+01 3.4862113592912838e+00 0 0 0
2546 1 1.0367354987360800e+00 9.0564257313206262e+00 4.1879937626333152e+00 2 -1 1
1116 2 3.6519859725407999e-01 2.9090346549943988e+00 6.3450440076233594e+00 1 0 0
4041 1 9.4823230230815962e+00 8.6454933165650480e+00 6.3355943492426157e+00 -3 -1 0
3360 1 6.0647075657325971e+00 6.0608781199666328e+00 2.7097021993694961e+00 0 0 0
4045 1 1.2853934995065772e+00 6.8790468326127483e+00 6.6482800215579516e+00 -1 -2 1
1525 2 2.3433155665961185e+00 6.5118935074424726e+00 3.5523012155429541e+00 1 0 1
4225 1 2.7987252935296700e+00 2.7348298353412677e+00 1.4456480499965716e+00 3 -2 -1
6046 1 2.3114399011036326e+00 8.5381176160838343e+00 2.4917550282543699e+00 1 -1 1
2903 1 8.3067055654134343e+00 9.3424152854291904e+00 3.5905357070446655e+00 -1 2 0
5979 1 8.8622054646269284e+00 5.1625271026916353e-01 6.0124232762181471e+00 0 3 0
1778 2 5.2456613960044240e+00 9.7635217893948028e+00 6.3913206332710253e+00 0 0 1
5254 1 6.4441919342095453e+00 2.9165614054079723e+00 5.4161256491604348e+00 -1 1 -1
2913 1 6.2503760887706319e+00 1.0174540971350480e+01 6.1578773006875487e+00 -3 1 0
4723 1 3.8782833695481549e+00 4.3331587431128256e+00 5.2324319459566517e+00 0 -3 0
3369 1 1.9730819980652121e+00 6.8715632188728053e+00 4.5125295510482708e+00 -1 0 0
3985 1 1.6647886614582357e+00 1.0053361393770301e+01 5.2049763614968008e+00 1 1 1
1841 2 9.6337962859367376e+00 9.6752657453942792e+00 6.1314100511329261e+00 0 0 0
3239 1 9.1937030665277337e+00 9.9718809057697796e-02 1.8602477496485550e+00 -2 3 -2
2155 1 1.6857003219901330e+00 3.5219785957271528e+00 6.4584346265041788e+00 2 0 -1
1901 2 1.0399190026113168e+01 9.7442319074813433e-01 4.5165316391487860e+00 0 1 0
3929 1 8.7644889529506653e-01 1.0735457376589906e+01 3.1789613494790885e+00 -3 0 2
272 2 1.0321484638997351e+01 3.0972035638163637e+00 3.5491737377319508e+00 0 0 0
3599 1 1.6022144216285252e+00 8.3356573548947726e+00 5.8553746996655445e+00 1 1 0
1338 2 7.2703140537930402e+00 6.6191252603970572e+00 5.1417725769068898e+00 0 0 0
2637 1 4.3994211399120129e+00 5.6168172907255522e+00 5.4913335711343674e+00 0 -2 0
1614 2 5.1948679120949481e-01 8.0372102555983176e+00 2.2128227038614963e+00 0 0 0
4702 1 3.8484039049050445e+00 8.3392898566780058e+00 5.0711853462917862e+00 -1 0 0
4365 1 7.8008355870225987e+00 7.8366191226782016e+00 2.0815415446189292e+00 0 -3 0
348 2 1.9658204906082062e+00 7.3633105930158065e+00 5.6830313879623020e+00 1 0 0
4318 1 6.8091770129089797e+00 7.4778794596535159e+00 6.1923668777298335e+00 -1 1 0
5463 1 2.4119479901456069e+00 4.9907621257483310e+00 6.7163049816561315e+00 0 1 0
5811 1 5.1416719158737911e-01 1.1122714969441025e+01 5.9602387944265871e+00 3 1 -2
502 2 4.7887442334602497e+00 7.4698552733605998e+00 6.3463988407355423e+00 0 0 1
1671 2 2.0094980817473380e+00 8.9642687113293391e+00 4.4656790351778106e+00 0 0 0
1647 2 4.6420720449725303e+00 7.8900181252609780e+00 2.7386403160203727e+00 1 0 0
303 2 3.0050845301962892e+00 1.0487023628046622e+01 6.0003514171924888e+00 0 0 0
820 2 2.8213005160959064e+00 9.0733916410179791e+00 2.0323241145588478e+00 0 0 0
2694 1 7.6399565720119265e+00 6.9657581054693658e+00 4.2890669331534585e+00 -1 -1 0
3615 1 9.8668534579969194e+00 4.9078096543731142e+00 1.6683496446345600e+00 -1 0 1
760 2 4.0221609600393649e+00 9.8185986518594870e+00 3.7532671706585159e+00 0 0 1
3414 1 6.2306565991460050e-01 3.2374961454013493e+00 3.5358734474833895e+00 2 1 0
219 2 9.9759348106272050e+00 1.9964172304095522e+00 1.4442058046689104e+00 0 0 1
5919 1 3.0571116741098798e+00 7.9584978398565287e+00 6.7338306780258659e+00 3 1 2
2809 1 6.6805025777028160e-01 1.0818474121285038e+00 1.7471198824872385e+00 3 -2 0
4823 1 6.6378586978698824e+00 5.2932920531551542e+00 4.9886733010377107e+00 0 0 0
4456 1 1.0965490472936667e+01 5.5465502402585836e+00 6.6239713875990773e+00 1 0 0
4200 1 1.8041751662871566e+00 9.4891495156946295e+00 3.4860655195931107e+00 1 -2 -1
4173 1 2.2974361991924104e+00 3.6913342271563625e+00 3.1078136486268146e+00 1 -2 1
1402 2 4.9650855742140276e+00 5.9266677521299878e+00 4.0788456670004862e+00 1 0 0
3793 1 1.0849301658199652e+01 6.7916590186322079e+00 6.0647880336182975e+00 0 0 1
5592 1 8.0363769069930537e+00 1.0626954209332840e+01 3.7905544583857012e+00 -1 4 0
3231 1 2.4282898673928934e+00 5.5241577466064138e+00 3.6142259862630599e+00 1 0 0
5555 1 6.7698337502623351e+00 8.9602700935309851e+00 6.4562798196146680e+00 2 -1 1
3324 1 8.4897683001468174e+00 4.0282290549883930e+00 6.6307941167081506e+00 1 2 1
3505 1 8.2059310700171864e+00 6.1765426270125037e+00 1.7942718326724449e+00 0 2 -1
813 2 1.0971607203776443e+01 6.7026039452980957e+00 3.7998017363391732e+00 -1 1 0
3911 1 9.2337956595591386e+00 8.7771994543503720e+00 2.8453431630490078e+00 -2 3 1
5351 1 1.1046529152412262e+01 7.9776488992541428e-01 5.3352420603820025e+00 2 0 -1
2994 1 7.6135473231174782e+00 5.8511908734104834e+00 3.2834113437438663e+00 -3 0 1
5586 1 9.2018445605025345e+00 9.6052134899269230e+00 4.9188879632389355e+00 3 0 1
5317 1 6.7576707517753380e+00 9.5680241753001845e+00 4.9989286004377274e+00 -1 0 1
1585 2 9.8148788999944170e+00 8.2172896179581514e+00 2.3043368329133687e+00 0 0 0
3286 1 1.0447862462086105e+01 8.0135411696312620e+00 5.0557350972855861e+00 0 0 0
4040 1 6.7104865784736925e+00 9.0800655212258334e+00 2.6715366593764101e+00 1 3 0
4334 1 1.0918695679647470e+01 5.5108457128020669e+00 5.2006617797236405e+00 1 -3 1
3134 1 6.1156048040743993e+00 8.7897519051408519e+00 3.9077562171820581e+00 -1 0 -2
5864 1 9.6024477363054430e+00 6.8563273234850852e+00 3.5575442816580276e+00 0 -2 0
320 2 8.4096237486253340e+00 1.0188288162267549e+01 2.7931622903669355e+00 -1 -1 0
4553 1 4.7049760214070258e+00 7.3376187808430018e+00 3.6863066538267732e+00 -2 1 2
2415 1 1.3963852456340196e+00 1.0467804586739190e+01 1.8312955779937274e+00 2 0 0