LAMMPS data file via write_data, version 5 Jun 2019, timestep = 10000

6912 atoms
2 atom types

0.0000000000000000e+00 2.7483699999999999e+01 xlo xhi
-1.0907204977298210e+00 3.1989360497769454e+01 ylo yhi
0.0000000000000000e+00 2.2904800000000002e+01 zlo zhi

Masses

1 1.008
2 15.9994

Atoms # atomic

1 2 3.2533384082772812e+00 1.1100524478234823e+00 2.1363739732271503e+00 0 0 0
4683 1 5.4364796396699013e+00 1.7208175719207901e+00 8.5808302576966888e-01 0 0 0
2 2 7.6127692817781034e-01 1.1858462102661385e+00 1.0512929263974362e+00 0 0 0
472 2 3.7595649334769616e+00 -1.0579609258349876e+00 5.4130148259778279e+00 0 1 0
3852 1 5.2165990258358166e+00 5.1034705361927779e+00 1.3047846948139306e+00 0 0 0
7 2 2.7753496350137499e+00 -2.4604349403413439e-01 3.4952505921880199e+00 0 0 0
6817 1 1.5541101069444638e+00 4.4238443399806400e+00 1.5475042772703957e+00 1 1 1
608 2 3.3125068118978618e+00 3.5405219068037637e+00 2.0213531278858370e+00 0 0 0
1762 2 2.5254609659988237e-05 4.4847345735755999e+00 3.1011792644088576e+00 1 0 0
3004 1 5.1501002098080644e+00 -3.5443701588076049e-01 1.6224318495581522e+00 0 1 1
5715 1 2.0328247669791515e+00 2.6307560799381786e+00 5.1914939144070757e+00 1 1 1
4721 1 4.6273691190077351e+00 3.2352147336115324e+00 4.0418819883052990e+00 0 0 0
6410 1 1.8983554302974710e+00 6.5276048414482597e+00 3.6363204784211876e+00 1 0 -1
46 2 2.0720896606405863e+00 -6.0708030452339123e-01 9.8392186522377079e-01 0 0 0
583 2 4.3694922628601818e+00 2.4030958487999561e+00 1.0832557416466991e-01 0 0 0
4245 1 4.2952165637108628e+00 5.8286008699435508e+00 4.2203246171656232e+00 0 1 1
9 2 5.9776007323300000e+00 -9.8306915938498529e-01 1.6247551822644506e+00 0 0 0
6676 1 1.9385076604006055e+00 1.1263378269738791e+00 4.6930997511573551e+00 1 1 0
2564 1 5.1918016753872465e+00 5.5950129109890376e+00 3.1032992096982426e+00 0 0 1
64 2 3.8608420712261022e+00 5.6362103663030547e+00 1.8978201336487031e+00 0 0 0
20 2 1.8231634931882614e+00 5.2181112093326298e+00 2.5617852697233721e+00 0 0 0
4991 1 3.3481017906284265e+00 2.1675780026613269e+00 4.6930758643720960e+00 0 0 0
3533 1 2.3239135382118499e+00 2.0845307824788182e+00 1.2518491755298051e+00 1 0 0
4798 1 5.7677167540439438e+00 4.0716487912611106e+00 1.2387536046181631e+00 0 0 1
38 2 1.9430080684844733e+00 2.6260369110231419e+00 3.4280242710099613e+00 0 0 0
4419 1 4.6271946567109330e+00 2.3729129565583404e+00 2.7541918809066410e+00 0 1 0
4839 1 8.9838417863296993e-01 2.2634084034381452e+00 1.3268425620906712e+00 1 0 1
3466 1 3.9834396756974639e+00 6.7059568803916942e+00 9.7062746660669041e-01 0 0 1
4470 1 4.1399608618098798e+00 4.2588235570161102e+00 3.1735294698604002e+00 0 1 1
3451 1 3.1540664878277149e+00 4.9066908485825111e+00 2.1706187795815786e+00 0 1 0
5717 1 3.0174872080846242e+00 8.9584044185366984e-01 3.3154026423569096e+00 1 1 1
23 2 4.2755766095201846e+00 2.3515362339103554e+00 3.5693670687111170e+00 0 0 0
19 2 5.1848589898909339e+00 3.6271310494973106e+00 2.2187280270374670e+00 0 0 0
6 2 6.0333120787976524e+00 3.7270812418574275e+00 1.2159618155214832e-01 0 0 0
6622 1 4.1867133472578182e+00 3.1910201194694299e+00 1.5783041136034155e+00 1 1 0
5237 1 8.1993871593687706e-01 5.2653079284523336e+00 7.0958243321545600e-01 0 1 0
5755 1 9.1906126075201622e-01 1.6052715947222742e+00 3.8866854770305310e+00 0 1 0
2588 1 5.7881737901653239e+00 -1.8450105422495255e-01 3.6228050692933167e-02 0 0 1
4982 1 6.6770351394030214e-01 -2.1592217405496494e-01 2.5204256230684052e+00 1 0 0
3790 1 6.2633283554782437e+00 6.8532640825171933e+00 2.5327680673937567e+00 0 0 1
3791 1 3.8204100946496791e+00 1.3577401935078992e-01 2.5708365598603238e+00 0 0 1
5 2 5.2252954490336831e+00 1.0110149072010501e+00 5.4496431385081712e+00 0 0 0
4749 1 8.8876309186397173e-01 7.0743346694685645e+00 2.0308184243548641e+00 1 0 1
2586 1 4.8583329108570839e-01 6.9692252362681817e-01 5.6154733077151349e+00 0 0 0
182 2 4.8342423414149387e+00 6.4653766785131062e+00 5.0509348152905025e+00 0 0 0
5809 1 8.6913100598117821e-01 1.0547581879135111e+00 2.0959489087902110e+00 1 0 1
1742 2 3.9114728366876825e+00 -9.0026893142281972e-01 2.0544242989538124e+00 1 0 0
127 2 5.8208113061664086e+00 5.4589509217703425e+00 9.1525913766850497e-01 0 0 1
5194 1 2.6954799461022612e+00 8.5699609246442821e-02 5.6111914284625843e+00 1 1 0
1747 2 4.0594474401677685e+00 2.2829328542714111e-01 1.6565929707343033e-01 1 0 0
3620 1 2.4129534928180649e+00 -7.8424573925870178e-01 4.2435363463006359e+00 0 0 0
22 2 5.2673181242487246e+00 6.4919966554506852e+00 3.0286570664698722e+00 0 0 0
2344 1 6.4280327960412356e+00 -1.1703934453807907e-02 3.5130167319954491e+00 -1 0 0
4433 1 5.1342961393595568e+00 -8.7337860015186419e-01 4.2873926228186194e+00 0 1 1
3506 1 5.2936533897432545e+00 7.0263511800118694e-01 2.8369003293070314e+00 0 0 0
17 2 3.1923422315524497e+00 6.4111847000388567e+00 1.0169617204559156e-01 0 0 0
3300 1 4.7511655617727442e+00 8.5464162406961819e-01 1.3718887802662825e+00 0 1 0
2993 1 1.0769436618918806e+00 -1.9973738044860578e-03 4.2501402367749757e+00 0 0 0
5041 1 2.5893304457680117e+00 6.3273084782566134e+00 8.0937327954636029e-01 1 0 0
6700 1 2.0344149219261167e+00 3.3639920154265015e+00 4.1928073284142080e+00 1 1 0
2593 1 2.1702125895098123e+00 3.3624597116483308e+00 2.8865655374017991e+00 0 0 0
14 2 6.4487290293992396e+00 -8.5415477238940407e-01 5.2672779483463472e+00 0 0 0
6647 1 6.5915417229555935e+00 3.2105874419513745e+00 3.6459845425258974e+00 1 1 -1
3055 1 3.5954470860816818e+00 4.1034834338885045e+00 5.2127901170657265e-01 0 1 1
579 2 5.6160397205747126e+00 1.1823465597740404e+00 1.5568588299825696e+00 0 0 0
607 2 6.4452605351843664e+00 2.2767477370747171e+00 3.1506786426176610e+00 0 0 0
466 2 4.8805634063272398e+00 2.5551725057256203e-01 3.5965920331531764e+00 0 1 0
5453 1 2.5934582314555334e+00 4.9142274920118574e+00 3.9934517612699354e+00 1 0 0
158 2 5.2577122398945486e-01 6.6459820920637682e+00 3.7679428345864223e+00 0 0 0
8 2 2.8223246216554272e+00 3.2767440650739843e+00 5.6758567386890926e+00 0 0 0
3601 1 3.9279650618629245e+00 4.2660233070689042e+00 4.8358868663976944e+00 1 0 1
6239 1 1.1935707179948805e+00 4.6947446309998062e+00 3.1236687914725954e+00 1 1 0
5745 1 9.3612079850031915e-01 5.1493966517848691e+00 1.9654510343911578e+00 1 1 0
30 2 3.8590091714342178e+00 4.7425222441951682e+00 3.9689146831535007e+00 0 0 0
63 2 2.0440672809636213e+00 6.6045911566215389e+00 5.3952497993996644e+00 0 0 0
25 2 1.6635221667051823e+00 4.6654226029807928e+00 4.9166553086018938e+00 0 0 0
2620 1 4.8048687867502107e+00 4.4855240715684364e+00 2.4588406717925380e+00 0 1 0
6256 1 3.5340110149311794e+00 -1.0588636986801916e+00 7.7845568155504696e-01 1 0 1
2496 1 9.9562916351278463e-01 6.8178181222931409e+00 4.6408474499458947e+00 0 0 1
4047 1 6.6539316078510771e+00 2.6940530291749214e+00 6.1149072686825545e-01 0 0 0
4772 1 5.3231712972106831e+00 9.6726819748082660e-01 4.3253432568849854e+00 1 0 0
2824 1 2.8085065599126406e+00 1.8744345838408121e+00 2.3399943370087701e+00 0 0 1
47 2 5.1955506873418233e+00 3.2946035224448096e+00 5.3293989533588455e+00 0 0 0
4984 1 5.4903566672030797e+00 5.5226350906193025e+00 4.6924732969504648e+00 1 0 0
1766 2 1.3693609709265138e+00 -3.4565841151675680e-01 5.3623139895884169e+00 1 0 0
40 2 3.0366749186643349e+00 1.2535614970500659e+00 4.7261438885288074e+00 0 0 0
5837 1 5.9311371351133895e+00 2.7831408262478528e+00 4.9444369404764386e+00 1 0 0
4524 1 6.5828860707910399e+00 4.8375087331787796e+00 2.1231619738388772e+00 0 1 1
71 2 3.0772078836059493e+00 6.5479265982748158e+00 3.8666719558246490e+00 0 0 0
118 2 4.7253681280666493e-01 3.5702609125410003e+00 1.2720836829252409e+00 0 0 1
3326 1 5.8023292985063957e-01 5.2056550960251844e+00 5.0399001902286447e+00 0 1 0
649 2 6.3821902333932279e+00 4.5348808127375806e+00 3.9515816221177289e+00 0 0 0
49 2 1.0583781271418811e+00 7.8677797050927367e-01 3.5028969226764044e+00 0 0 0
1756 2 1.7030558150321244e+00 5.2076007270886517e+00 3.5686242241197125e-01 1 0 0
4728 1 6.4992553746457506e+00 4.0204142609862030e+00 4.8576627624288831e+00 0 0 0
5598 1 5.7707648054997351e+00 6.5741053246635515e+00 1.2350026145507480e+00 1 1 0
3109 1 1.9076276059053745e+00 5.5660525347477128e+00 5.5305615180990673e+00 0 0 0
2611 1 1.0361682154469598e+00 3.6399380155762691e+00 1.9800421852808501e+00 0 0 0
2863 1 2.0289394005039735e-01 6.5975083828038059e+00 2.1584246274268040e+00 0 0 1
4473 1 6.8357510707789002e+00 5.6720038213895387e+00 3.3328181791557752e+00 0 1 0
3866 1 3.5319214337319300e+00 2.4212759809979962e+00 2.5368893194630315e-01 0 0 0
6667 1 3.0577120153322892e+00 8.6075942050281018e-03 1.4494026456255411e+00 0 1 0
122 2 2.3282624902343589e+00 2.4821164846247989e+00 4.7647911076480082e-01 0 0 1
4067 1 3.1293422900534047e+00 6.5019358582162621e+00 1.9613829302873103e+00 0 1 -1
15 2 8.6558510457193594e-02 3.1873694534828179e+00 4.7298040774769463e+00 0 0 0
4427 1 1.9901897737627119e+00 -1.0222597251286756e+00 2.7768681624530216e+00 0 1 0
4920 1 4.2679545095649019e+00 3.0697948836342954e+00 5.5909407691381672e+00 0 1 0
6620 1 4.4536127618368999e+00 1.7254681965305907e-01 5.4100182679998658e+00 1 1 0
5940 1 2.4047262316987483e-01 6.9482447599562622e+00 5.6107486033834428e+00 1 0 0
2871 1 4.2099634374390380e+00 6.0180950606449821e+00 5.5489739056285492e+00 -1 0 1
4025 1 3.2873224807022581e+00 3.4818472801371669e-01 3.7404104675381933e-01 0 0 1
3584 1 6.4835424859070674e+00 1.9421248826044217e+00 6.9713449585631890e+00 0 0 0
42 2 1.8884030249206621e-01 2.0235522273608426e+00 8.5924356994260140e+00 0 0 0
3404 1 6.7297766281410256e+00 1.4414485047485126e-01 7.2441311167261215e+00 0 1 1
4911 1 5.6879548014185586e+00 6.7343305571248901e+00 1.1134311911134812e+01 1 0 -1
62 2 1.8361971498152254e+00 5.1153746492479502e-01 7.7182824394753347e+00 0 0 0
1782 2 1.2573483311820495e+00 1.7029760575134731e+00 5.8255549013549057e+00 1 0 0
3445 1 6.0312315338068894e+00 6.6589352863199291e+00 7.4551924145093249e+00 -1 1 0
101 2 5.1013200832649437e+00 6.3936704328120584e+00 7.5855739817052577e+00 0 0 0
3731 1 1.3596387289536251e+00 1.9153903801679939e+00 7.4803369636451622e+00 0 0 0
4286 1 2.6833235972461038e+00 1.9808445353413004e+00 9.9118035459019111e+00 0 1 0
6557 1 4.2948612080707385e+00 1.5209253023587586e+00 6.4245238690203745e+00 1 0 1
6819 1 3.7181664254764590e+00 1.2109536379829242e+00 8.0794871228111411e+00 1 1 1
1764 2 4.0803523554528842e-01 6.1015528952277744e+00 7.3732305227864527e+00 1 0 0
6163 1 4.0767455762286477e+00 3.0463183693871327e+00 9.6811485934125123e+00 1 0 0
77 2 6.6582194570163333e-01 3.8058429692886007e+00 6.6969317549920317e+00 0 0 0
3627 1 6.0234464306362074e+00 4.5636874185381000e+00 9.4124744233684314e+00 -1 0 0
6854 1 5.1900879763171206e+00 6.2100793218594328e+00 8.5292720215987359e+00 1 1 0
2363 1 2.0905877769767867e+00 3.6028122009423296e+00 1.0309836850300423e+01 0 0 0
2315 1 4.5176957038881111e+00 4.9202656966187401e+00 9.2335486712849928e+00 0 0 0
5624 1 2.7307936718242325e+00 -6.5987536534211966e-02 7.5723504253073433e+00 1 1 1
2929 1 6.6680366688953441e-01 -5.9567469472459567e-01 6.1576750142837922e+00 0 1 -1
197 2 3.3460344715524002e+00 5.2724528435408482e+00 1.0553083097969880e+01 0 0 0
3844 1 6.7314836372152973e+00 -1.0660849064129039e+00 7.7826787424131068e+00 0 0 0
37 2 6.7622422982590660e+00 -5.1443029903634918e-01 9.1145637066502978e+00 0 0 0
6138 1 1.3193240495037841e+00 5.1258982770443859e+00 6.3760200437091878e+00 1 0 0
4599 1 3.2938103832804448e+00 -3.1480119132224660e-01 1.0176392333209435e+01 0 1 0
4170 1 6.3916389806843787e-01 -5.7117505262311186e-02 1.0478228663798852e+01 1 0 0
45 2 1.9421037307021132e+00 1.3080363727510322e+00 1.0296021746466787e+01 0 0 0
6830 1 9.6495661501589236e-01 1.6203500524899246e+00 1.0457494129168769e+01 1 1 0
5930 1 5.8729259319023805e+00 3.0568700473802144e+00 9.6003609822170386e+00 0 0 0
2418 1 1.7991704412384171e+00 6.9756989174552348e+00 6.2950219449399958e+00 0 0 0
75 2 4.7342754962937779e+00 -7.1384201419326909e-01 9.8099170325315033e+00 0 0 0
39 2 3.4131460225556993e+00 1.2103493332942294e+00 6.7674866249205801e+00 0 0 0
4022 1 8.3910912107355928e-01 2.5815394359363300e+00 1.0008600212778974e+01 1 0 0
44 2 5.7232288491779215e+00 1.4939468647995833e+00 9.4528014479016242e+00 0 0 0
3840 1 1.7765189805568351e+00 7.9124965540521441e-01 8.7330435771714612e+00 0 0 0
200 2 2.5050091126888931e+00 6.8496283033582896e+00 7.6151099855117108e+00 0 0 0
52 2 3.5711730498183951e+00 1.2138824059165589e+00 9.0191972695539455e+00 0 0 0
3256 1 4.6666449289389869e+00 -7.1409592032285651e-01 8.7207282644584367e+00 0 1 0
2567 1 5.7287313943521250e+00 5.3222294765631100e+00 6.2094126486968770e+00 0 0 1
671 2 6.4146672476796089e+00 4.4449831253217997e-01 1.1413797260635675e+01 0 0 0
81 2 3.9383000922783024e-01 2.9863556122161174e+00 1.0674698022424435e+01 0 0 0
6126 1 1.4591243431812702e+00 5.1213641734624540e+00 1.0493624600222985e+01 1 0 0
4177 1 2.5328481056134899e+00 7.0976081877087740e+00 9.9864830615201861e+00 0 1 0
2404 1 5.4591212792036119e+00 -2.4360375990623306e-01 6.4867476594141413e+00 0 0 0
6670 1 8.5282673407604992e-01 1.4525960541554435e+00 8.6216751529545590e+00 1 1 0
2836 1 5.9718209241137048e+00 5.1491602562112844e+00 1.1079517754769727e+01 0 0 0
2645 1 2.5872331005180897e+00 2.7245553685185651e+00 6.3960624983813128e+00 0 0 0
1858 2 4.8494860133943479e-01 -1.8666390879234607e-02 9.3010394697145351e+00 1 0 0
185 2 2.6000656878667812e+00 3.1500413473177931e+00 9.7127287715348452e+00 0 0 0
6598 1 3.4143703852508369e+00 9.9388637965933180e-01 1.0955980703852873e+01 1 0 0
6047 1 2.5712623681981204e+00 6.2402779021349524e+00 6.5884573913424127e+00 1 0 0
3619 1 4.1549333689303207e+00 5.6453007037944873e+00 1.0758016412570534e+01 0 0 0
6015 1 4.8616824351421357e+00 4.0512981778166619e+00 1.0434333892396319e+01 0 0 1
4533 1 1.1457693390171186e+00 5.9459561334377522e+00 9.4742826001251714e+00 0 1 0
2878 1 4.4368453633846601e+00 -8.8579867908626075e-01 7.5961497032528360e+00 0 0 0
3813 1 5.5305783346630326e+00 5.8328981314712092e-01 1.1370982306369992e+01 0 0 0
3242 1 6.4544937270748077e+00 1.8542256121056737e+00 1.0078848526015179e+01 0 1 0
35 2 2.3338057812717632e+00 4.7400251557968547e+00 7.1065598898194349e+00 0 0 0
6066 1 4.1879077103245754e-01 4.9637022064291614e+00 7.0009590488362257e+00 1 0 0
2365 1 5.1021446730283344e+00 3.2518969115780800e+00 6.7306239067764100e+00 0 0 0
6095 1 1.5723950996528957e+00 7.6529744399091371e-01 6.4652249117508394e+00 1 0 0
451 2 5.2190183144619802e+00 -1.9507206596867177e-01 7.5612958282533143e+00 0 1 0
69 2 4.0138316143335802e+00 3.3135832703091994e+00 7.8556735919575882e+00 0 0 0
4966 1 3.4042862494456863e+00 3.8315857719921231e+00 6.2995149224563827e+00 1 0 0
5629 1 3.2108014457357283e+00 3.9040140279720958e-01 9.0828558956086720e+00 1 1 0
58 2 1.6015391719664505e+00 5.0853186169368447e+00 9.4615581097905199e+00 0 0 0
3936 1 4.5436895317397230e+00 2.0238833793352020e+00 1.0769372500827512e+01 0 0 0
3955 1 1.1146500612766319e+00 3.8180665510111398e+00 7.5446119721499176e+00 0 0 1
2709 1 2.4160958116855862e+00 4.7686564965123273e+00 9.1727141179832348e+00 0 0 0
4585 1 6.3915876442878350e+00 6.7963351781116987e+00 9.1365849358148594e+00 0 1 1
2653 1 5.6815531366782110e+00 3.1213525381615614e+00 7.4268424887451898e+00 0 0 0
6286 1 2.0744296009979939e+00 6.1326033872669434e+00 8.0721863433116674e+00 1 0 1
629 2 5.5489589441665181e+00 2.0025306582048636e+00 7.2438571369461284e+00 0 0 0
4334 1 5.1214210934861546e+00 2.9780896905958176e-01 9.5093355418772365e+00 0 1 -1
5268 1 5.2825040176955831e+00 1.7131096740866472e+00 8.6802775094073912e+00 0 0 0
5489 1 3.7120021838812861e-01 4.5219473959469081e+00 8.5240807433051504e+00 1 1 0
4695 1 1.0679795660000801e-01 6.5815749640411774e+00 1.0649111654918331e+01 1 0 0
3024 1 1.8459159226560902e+00 3.1462257488101928e+00 8.6956241558994858e+00 0 0 0
3531 1 3.1592409196856739e+00 4.0743959111359471e+00 7.8012736354324304e+00 0 0 0
34 2 3.8303967791122240e+00 5.3697396295368689e+00 8.6979388340053436e+00 0 0 0
628 2 4.9427486363051516e+00 3.5364286199270492e+00 9.6208641748754413e+00 0 0 0
3725 1 3.2309046004316562e+00 6.0664792724193015e+00 8.9619370941788556e+00 0 0 0
3416 1 4.7265675991855653e+00 3.8887459434603500e+00 7.7950813323504828e+00 0 1 0
5157 1 2.9864415907803599e+00 1.7508592102497422e-01 6.5359170482302202e+00 1 0 1
1760 2 1.9258464114691640e+00 2.5434888531766431e+00 7.8340665620486805e+00 1 0 0
2323 1 4.4166163023583765e-01 -5.1318163873907519e-01 8.3736108129295150e+00 0 0 0
4620 1 3.8189933515649210e+00 4.6054497022893690e+00 1.1259647383883351e+01 0 0 -1
6197 1 4.1826208707561969e+00 6.8745495336262641e+00 9.1415252664152913e+00 1 0 1
5481 1 5.0107078516095394e+00 5.1872351616433470e+00 7.5906909595540188e+00 0 1 0
60 2 5.7482099143000420e+00 5.7892304495952187e+00 9.5786392785527763e+00 0 0 0
43 2 4.1579178978798055e+00 4.9399134842747223e+00 6.2779358450648459e+00 0 0 0
156 2 6.5681922371697237e+00 5.5448008529242214e+00 6.0250749303052160e+00 0 0 0
11 2 5.9279781578118316e+00 4.1265064940369198e+00 7.3673058681765733e+00 0 0 0
2834 1 2.7779146986308283e+00 2.1699067163635544e+00 7.8708501626352643e+00 0 0 0
3570 1 3.2983155318337150e+00 5.0359902641567356e+00 6.8992360451530699e+00 0 0 0
6560 1 2.1634186619329023e+00 2.4055950692419970e-01 1.0380974047127461e+01 1 1 0
569 2 1.4454504710516829e+00 -2.2673139120107888e-01 1.1391163793921541e+01 0 1 0
2599 1 1.7280096010929034e+00 6.8932263784320087e+00 1.1295550407222164e+01 0 0 -1
492 2 3.6047707593991687e+00 1.8707800613847847e-01 1.1439396456699567e+01 0 1 0
4287 1 6.1495822422634552e+00 1.3504758619661863e+00 5.7557872607829932e+00 0 1 1
4962 1 1.1477929335737302e-01 3.7849551287784493e+00 1.1444531607622968e+01 1 0 0
3502 1 9.1275906809703844e-01 2.7326299290814031e+00 5.7450614730524521e+00 2 0 0
76 2 1.8988494147488895e+00 3.4335238315741847e+00 1.6077643013717296e+01 0 0 0
5473 1 1.9409419923292670e+00 -7.1514010492719826e-01 1.3729986462562945e+01 1 1 0
6144 1 4.1788149863177608e+00 1.5397749400391443e+00 1.3082794140692101e+01 1 0 0
6722 1 4.2515841794472751e+00 7.1026947153382238e+00 1.6503856362680647e+01 1 0 -1
6549 1 1.3080665856954683e+00 2.0640265636417654e+00 1.4407647194194578e+01 0 1 0
5686 1 1.2889376707503521e+00 2.5675348732504415e+00 1.6377826673245117e+01 1 1 0
6320 1 3.4103738785974552e-01 -7.2201005006233276e-01 1.6697347490494820e+01 0 0 0
4178 1 1.9964972659505615e+00 5.1401760381112664e+00 1.3208497854180248e+01 1 1 0
96 2 4.3583347458203727e+00 3.4820306558149712e+00 1.3741221208570282e+01 0 0 0
4271 1 5.3299398030505722e+00 -4.2105845081131155e-01 1.2241991404115170e+01 0 1 -1
5968 1 5.4922327127471142e+00 -1.0685659494563016e-01 1.4744204323417724e+01 1 0 0
2688 1 3.6989911753069502e+00 3.1341985141581841e+00 1.5354901017817765e+01 0 0 -1
97 2 5.6020986532384436e+00 1.3731617150580373e+00 1.3295332064676877e+01 0 0 0
216 2 5.9696769968732477e+00 7.1663033852622959e+00 1.3660042660496451e+01 0 0 0
2500 1 4.2922744259653225e+00 -9.1326877378294702e-01 1.4101090829151387e+01 0 0 1
6708 1 3.2623043019979754e+00 4.1605243402296415e+00 1.6123518520649153e+01 0 1 -1
4865 1 1.3343507524929521e-02 -2.8037747996169826e-01 1.5208939391594278e+01 0 0 1
107 2 2.2246100878948845e+00 7.3430853846092825e-01 1.5329949744300995e+01 0 0 0
85 2 4.7889594875332593e+00 -7.2160266559764086e-01 1.2993727326114476e+01 0 0 0
188 2 6.9387011868648774e-01 6.6160082343344779e+00 1.1651691753981632e+01 0 0 0
5778 1 3.5697232145040453e-01 5.2243608758556617e+00 1.5513672064886906e+01 1 0 0
5980 1 3.9643633001014389e+00 6.3994528229157179e+00 1.5163976282014691e+01 0 0 0
4235 1 6.5422671833024513e+00 3.8776364319058709e+00 1.1540901045369097e+01 0 1 -1
1811 2 5.5419732442039647e-03 4.0473615610524876e+00 1.5016973284291561e+01 1 0 0
5939 1 4.2042633310137205e+00 -3.2343036875968056e-01 1.5864978454212011e+01 1 0 0
16 2 4.4665118473565606e+00 5.5085587200219326e+00 1.3311488992012842e+01 0 0 0
4720 1 6.2297441926752954e+00 -1.8272384052080870e-02 1.6228036084058651e+01 0 0 -1
93 2 4.8482975674072015e-01 3.3444516787749627e+00 1.2746478873167025e+01 0 0 0
2332 1 1.8671654825439279e-01 7.0009407134036667e+00 1.5782224285161357e+01 0 0 -1
3307 1 1.7723959385503372e+00 -4.1058684047560734e-01 1.6433536924755852e+01 0 1 -1
708 2 6.7322365628515639e+00 -5.9596148553154915e-01 1.3361452480652691e+01 0 0 0
4356 1 1.5092687042093369e+00 5.8215914904638053e+00 1.4721338354530907e+01 0 1 0
4122 1 5.6959983805574552e+00 6.3056755740399000e+00 1.2654641656505438e+01 0 0 0
539 2 5.9493186539831489e-01 1.5114806726812966e+00 1.4440954067321597e+01 0 1 0
4857 1 9.7512444885000260e-01 3.7421631454801725e+00 1.4671950978066461e+01 1 0 1
3667 1 1.4914663839766558e+00 3.7447059121072508e+00 1.2752709340481099e+01 0 0 0
5358 1 2.9282466765240636e+00 2.4787307045873597e-01 1.5261754248014389e+01 1 0 1
533 2 2.6201987032297107e+00 -5.9621284732823732e-01 1.3266773251552536e+01 0 1 0
5975 1 4.7659387992332700e+00 1.8912540859629425e+00 1.6064945181472865e+01 0 0 0
4703 1 3.6236452848707845e+00 5.9613394912919118e+00 1.3527379912762616e+01 1 0 0
3572 1 2.8355299450128895e+00 4.6012727848327897e+00 1.4268148590894672e+01 0 0 0
5343 1 6.4174387704115130e+00 4.7250561296510636e+00 1.4112195411955257e+01 0 1 0
83 2 3.5279157495545981e+00 1.1610244115559021e+00 1.3682151307150331e+01 0 0 0
6082 1 2.4494740417260901e+00 3.0216174288508562e+00 1.1786566996555718e+01 1 0 0
267 2 5.0984413151820016e+00 6.4739484015651430e+00 1.5626386060137857e+01 0 0 0
2584 1 2.9354416803031325e+00 2.6725836307559172e+00 1.4734074128320014e+01 0 0 0
84 2 4.4986892383397219e+00 7.0525690149841669e-02 1.4939765359614912e+01 0 0 0
3089 1 4.6087250590910775e+00 5.1564179725618953e+00 1.6709030585931998e+01 0 0 0
5631 1 3.0392699077658087e+00 1.7537885191822302e+00 1.6118613940428009e+01 0 1 0
2937 1 1.1052329696284440e+00 3.9375099522351773e+00 1.6125636489882460e+01 1 1 0
66 2 5.4516343529524045e+00 4.2004593637270560e+00 1.1783918398259951e+01 0 0 0
5267 1 6.1884550151986586e+00 2.3286698302874096e+00 1.2893387118029171e+01 0 0 -1
1818 2 5.2423875072971826e-01 -4.4496888545432378e-01 1.3958952237839812e+01 1 0 0
104 2 4.4635461722820740e+00 3.9382851760382858e+00 1.6968179499978863e+01 0 0 0
622 2 4.0264337273715096e+00 2.1894729034042695e+00 1.1523277728003730e+01 0 0 0
82 2 3.7308704105341666e+00 2.3051070149971808e+00 1.5634286721111181e+01 0 0 0
105 2 5.7552779397766285e+00 1.2432302815537244e+00 1.7105807274552433e+01 0 0 0
4199 1 5.1636271738433503e+00 3.7505782139903179e+00 1.6207194295822486e+01 0 1 0
3611 1 6.3179486010322599e+00 1.3110688448201135e+00 1.4036316668360596e+01 0 0 1
4583 1 4.0025028743060193e-01 3.3637524973611166e+00 1.3739133227124805e+01 0 1 0
102 2 2.8752053014214445e+00 6.3978997565533211e+00 1.5760910927700811e+01 0 0 0
103 2 5.7350328397458163e+00 2.4475857198081616e+00 1.5381038362296868e+01 0 0 0
657 2 6.6491790220619906e+00 3.9152893601098993e-01 1.5404988741824333e+01 0 0 0
5743 1 6.7892637414187895e+00 4.2089119373349853e+00 1.3008204530916446e+01 0 1 0
5110 1 5.0409784565937779e+00 2.8105899694936816e+00 1.3643715342874643e+01 0 0 0
92 2 2.9680086197263553e+00 6.7940822501754070e+00 1.1548385638864708e+01 0 0 0
87 2 2.1257689571829923e+00 2.8925909997130606e+00 1.4200336934471254e+01 0 0 0
67 2 3.4995632488064552e+00 4.5348498745638421e+00 1.5232622968005963e+01 0 0 0
4736 1 5.5867581111454205e+00 5.3532422948662868e+00 1.5062141928437210e+01 0 0 -1
3702 1 4.0225653823802112e+00 5.9490508151082953e+00 1.2356040188637184e+01 1 0 1
215 2 6.8204792708819995e-01 6.1073605685046051e+00 1.5645305994337187e+01 0 0 0
1834 2 2.6934082584427825e+00 3.7266679052751881e+00 1.2379754545150710e+01 1 0 0
41 2 1.7792986045131944e+00 1.7938006460419613e+00 1.2375290688609711e+01 0 0 0
2554 1 3.5519273957365036e+00 6.0289215156183165e+00 1.7048669356681614e+01 0 0 0
5957 1 2.5020510707957504e+00 7.1000421496051587e+00 1.6404295167788245e+01 1 0 0
106 2 1.8742628733772932e+00 5.0373292445830007e+00 1.4250875066925810e+01 0 0 0
4355 1 5.4505031537814794e+00 6.6131668920958289e+00 1.4614394515565538e+01 0 1 0
3618 1 4.4511491015390066e+00 4.2598497220321159e+00 1.4467203157732198e+01 1 0 0
6452 1 5.0798929191194384e+00 5.9017275622697198e+00 1.3907465301244983e+01 1 1 0
48 2 4.7802497349422506e+00 -5.1281492023058173e-01 1.7094476292262431e+01 0 0 0
4505 1 4.7050386537085505e+00 4.0042230912964580e+00 1.2805452335233886e+01 0 1 0
6029 1 4.7159572962721370e+00 1.0238881160044175e+00 1.4843779948347269e+01 1 0 1
2513 1 1.1376596875937379e+00 7.7729786724438510e-01 1.5709729965087677e+01 0 0 0
2475 1 7.0810347251552264e-01 6.0613064183065268e-01 1.3979840799334557e+01 0 0 0
4097 1 6.4585922109508047e+00 3.2193437993473504e+00 1.4118286345227194e+01 0 1 0
5008 1 2.1752717463844409e+00 4.6767506280270297e+00 1.5776981305119589e+01 0 0 0
5001 1 2.4143092851267860e+00 6.7797771004669372e-01 1.6369596364025409e+01 1 0 -1
3332 1 1.0651623284555485e+00 2.6325264216773925e+00 1.2151469004485991e+01 0 0 0
779 2 6.6764431639644153e+00 5.1344258637924023e+00 1.3220787931069962e+01 0 0 0
3095 1 3.3124083928852177e+00 -8.2000877936926786e-02 1.3703175661128011e+01 0 0 0
4399 1 1.9869090089087598e+00 6.9111802266686517e+00 1.3103955071239739e+01 1 1 0
2421 1 6.5173022394384077e+00 -2.5590636488872454e-01 1.2136840655647566e+01 0 0 0
59 2 5.0956333450994089e+00 6.7848061269791238e+00 1.1784875755375827e+01 0 0 0
1832 2 3.1914200659702641e-01 2.0191930835715386e+00 1.6498637520842593e+01 1 0 0
72 2 5.9264347518955462e+00 4.4649282812968867e+00 1.5240086535690780e+01 0 0 0
246 2 1.3202415108642498e+00 4.9945776296704505e+00 1.1554872439032557e+01 0 0 0
6690 1 2.3946406241903500e+00 -1.6375438697434430e-01 1.1908500795433776e+01 1 1 0
5226 1 2.4768220765066866e+00 1.5157019063633821e+00 1.3660717167610954e+01 0 0 -1
4905 1 2.8253897591820216e+00 3.1947129463833432e+00 1.3121952354470952e+01 1 0 0
6755 1 2.0054650409571857e+00 5.4038236178940000e+00 1.1966421095583721e+01 1 0 0
2566 1 4.5081305812824340e-01 5.4015078975402160e+00 1.2535034660500393e+01 1 0 0
3990 1 2.4035796591735061e+00 5.6685616887613914e+00 1.5826714920103440e+01 1 0 0
2476 1 5.9468475629158464e+00 1.8162803529754492e+00 1.6216575310165563e+01 0 0 0
2881 1 6.4751162403886164e+00 1.9514059907639161e+00 1.5059514047062738e+01 0 1 -1
5796 1 5.9139403004432012e+00 6.5774116817566872e+00 1.6190064510736448e+01 1 0 0
5821 1 1.0706263952876907e+00 1.1500954939244208e+00 1.2621287991366131e+01 1 0 0
3363 1 7.7764196264897800e-01 9.5732292818509945e-01 1.6754755948855092e+01 0 1 0
3523 1 3.7402005039797737e+00 2.9139780784358464e+00 1.1599359623626409e+01 1 0 -1
5529 1 5.3606822229937539e+00 6.5671360985753031e+00 1.7644458956031919e+01 0 1 -1
4487 1 4.8808867406455008e+00 3.8238716475633456e+00 1.7952532284297138e+01 0 1 0
4691 1 2.4096699833502653e+00 2.9546500154729509e+00 2.2065488620072962e+01 0 0 0
3922 1 5.4070647221480144e+00 -3.8803480475879371e-01 1.8037386746811016e+01 0 1 0
6714 1 1.5595349639338165e+00 -1.9632391967448370e-02 2.2475231462282864e+01 1 1 -1
1042 2 5.1403250196085235e+00 -8.6514524543844185e-01 2.1189148609853437e+01 0 1 -1
2583 1 5.3851928601444909e-01 4.9292341581749444e+00 1.9631855195060712e+01 0 0 0
5678 1 3.2813632115136215e-04 6.5088951982233167e+00 2.0344698865807313e+01 1 1 0
5325 1 3.1488440093377448e+00 2.1281251928913876e+00 1.7708806977427123e+01 0 0 0
74 2 1.6888960472939736e+00 5.8043220353529823e-01 1.7724967763044660e+01 0 0 0
6407 1 6.8132634882959335e+00 -3.8905243763277175e-01 1.9287090535572748e+01 1 1 -1
6719 1 1.4858543585716599e+00 -7.6419145373493058e-01 1.9213942610239172e+01 1 1 -1
6827 1 3.9900584312101115e+00 -3.3943935701814087e-02 2.2155727076232257e+01 1 0 0
6188 1 6.3783253905278583e+00 4.8006437423087833e+00 1.7580563172758751e+01 0 0 0
4053 1 5.7308187933444241e+00 1.8820488689855899e+00 1.8377811692865002e+01 0 1 0
2528 1 3.6451742943769245e+00 -8.0561354997836032e-01 1.8592593500689674e+01 0 0 0
2437 1 3.3734979847960158e+00 4.8981878121336635e+00 2.0081443751297346e+01 0 0 0
2336 1 6.2767556352811518e+00 5.5569624386341787e-01 1.7283359985063061e+01 0 0 -1
2909 1 6.9404896638692948e-01 6.3254021561721174e-01 1.9936402583611425e+01 0 0 0
3283 1 6.4966031427303772e+00 1.3250144540755220e+00 1.9822117104631896e+01 0 1 -2
4936 1 4.2915518591177984e+00 3.6760652117982273e+00 2.0469351883617453e+01 0 0 -1
542 2 3.2892844024071430e+00 4.4878768422812554e-01 2.1287804404193466e+01 0 1 0
3038 1 7.0268282518277758e-01 2.5788395320867790e+00 1.9320416639736269e+01 0 0 0
2399 1 1.9388450892765305e+00 7.1057110923732547e-01 1.9282227584978656e+01 0 0 -1
3978 1 3.9390202365051064e+00 9.6353633266255789e-01 1.8565606625963316e+01 0 0 0
117 2 4.6637387928142565e-01 2.9981820073660872e+00 1.8435741331490721e+01 0 0 0
3291 1 6.4110915783833331e+00 3.5495948958881884e+00 1.8207290214427967e+01 0 1 0
136 2 4.9806206220975984e+00 6.7006900670244480e+00 1.9160396351145923e+01 0 0 0
5568 1 5.3993634035297893e+00 4.3482662049210168e+00 2.0185484463202766e+01 0 1 -1
2499 1 2.1121961427450548e+00 5.0214005494730216e+00 2.0682166595100512e+01 0 -1 0
113 2 2.4245873990289644e+00 1.8922749687789020e+00 1.9532909008110426e+01 0 0 0
6332 1 5.6161674657445326e+00 3.1914442610018021e+00 1.9547352647139782e+01 1 0 -1
5680 1 5.1868469965577892e+00 2.3011464032609559e+00 2.0683279920980389e+01 1 1 -1
3537 1 3.4716869870324513e-01 -5.5063163621988143e-01 2.1265394455693169e+01 1 0 0
3687 1 4.8040346321302447e+00 5.7998319491622814e+00 1.9861491013532994e+01 0 0 0
1990 2 1.3091250669138268e+00 6.9711623543055818e+00 1.7509504461363306e+01 1 0 0
3228 1 4.0061317572317172e+00 5.6685757575218263e+00 1.8376516719464686e+01 0 1 -1
2531 1 5.8361539882889995e+00 -2.0866342517940306e-01 2.1202626884323447e+01 0 0 0
3293 1 1.2553041656888135e+00 6.6606564190701736e+00 2.0994771299407418e+01 0 1 0
4607 1 1.4435423945880510e+00 4.9391262406504799e+00 1.8677758419308713e+01 0 1 0
1869 2 3.8021952357366184e-01 6.5676752939255385e+00 1.9483126835177330e+01 1 0 0