LAMMPS data file via write_data, version 5 Jun 2019, timestep = 10000

6912 atoms
2 atom types

0.0000000000000000e+00 2.7862800000000000e+01 xlo xhi
-1.3619189497753510e+00 3.2260558949814168e+01 ylo yhi
0.0000000000000000e+00 2.3220800000000001e+01 zlo zhi

Masses

1 1.008
2 15.9994

Atoms # atomic

1 2 3.1865377293493768e+00 2.3573255726883788e+00 3.7134219193208695e+00 0 0 0
5 2 4.8482241102462940e+00 -8.5255395010408941e-01 3.9104627348732666e+00 0 0 0
579 2 4.5096205782434202e+00 9.9296199631299187e-01 1.9901281543572182e+00 0 0 0
40 2 3.3306093805935677e+00 -1.2226540912472494e+00 5.3684294730670707e+00 0 0 0
39 2 4.7721152892013832e+00 9.3066612814473570e-01 5.5376866212354301e+00 0 0 0
122 2 2.7494046427739134e+00 2.3659557675941278e+00 1.4015025399573660e+00 0 0 1
1742 2 2.6959914461193311e+00 2.7318083919899094e-01 2.9644349058217703e+00 1 0 0
2554 1 7.5727560072954825e-01 -1.1277390762043273e+00 4.2234840289352933e+00 0 0 1
1782 2 2.2533389097499912e+00 9.5118044746444363e-01 5.4290581140939098e+00 1 0 0
3939 1 6.5757380429414418e+00 6.8037191381483675e-01 5.7273446002039288e+00 1 0 1
4192 1 7.1717192735339164e-01 1.2436174283085450e+00 2.5086030773067569e-01 1 0 1
4 2 1.1140166971739758e+00 1.2681739633918712e+00 2.0323873738166682e+00 0 0 0
5247 1 1.7611152380200019e+00 3.9975615096858954e+00 7.0740639082857293e-01 1 1 1
3210 1 4.1259826401061463e+00 5.4761223059248394e+00 3.4371577899647070e+00 0 1 0
3109 1 4.7272087438861998e+00 1.5067930049915259e+00 6.6369060772027693e+00 0 0 0
1739 2 1.2233128569836780e+00 2.4547876180773840e+00 3.8681040133443783e+00 1 0 0
5041 1 5.4336692125020960e+00 4.0612858443397890e+00 1.1576111797236733e+01 1 0 -1
49 2 5.7383561497412094e-01 1.2465365691679531e-01 4.1580429273662753e+00 0 0 0
6081 1 2.4605148979020823e+00 2.4093805424685901e+00 1.0592551871280197e+01 1 0 0
3142 1 4.4051652313103711e+00 4.3260175965757721e+00 5.2405875927105319e+00 0 1 1
4426 1 5.4132484925965194e+00 -6.0442503998731545e-01 1.1105586441645441e+00 0 1 1
3454 1 2.7673365549452038e+00 4.2077352989439447e+00 1.0131446251604797e+00 0 1 0
2742 1 3.2391413582658464e+00 4.4212813052335633e+00 3.8355034947068734e+00 0 0 1
3519 1 2.7481657598750262e+00 2.6744148064599438e+00 2.9122816740294084e+00 0 0 0
6450 1 3.1385748345980145e+00 1.3958466901606701e+00 3.3610629971786685e+00 1 1 0
4976 1 1.6707938606780035e+00 2.6548811667896484e+00 5.3072563344509827e-01 1 0 0
2 2 3.8704108285242400e-01 -1.1203119579461385e-01 5.7348235587283547e-01 0 0 0
4128 1 2.7840652505347339e+00 1.6291361532517179e-01 4.1807349144212163e+00 0 1 0
44 2 6.6514005952500952e+00 -8.6033123395156119e-02 9.3647689473367972e+00 0 0 0
6866 1 5.8078452289779934e+00 3.1301062947028093e+00 5.8614916135367920e+00 1 1 1
23 2 5.5973206485920075e+00 1.8758566997102770e+00 3.6613780361617301e+00 0 0 0
2562 1 2.5721960391679013e+00 -3.2263385029936842e-01 8.1755713176407774e+00 0 0 1
118 2 7.5218470070222421e-01 3.5123401035764985e+00 1.6275555007674143e+00 0 0 1
62 2 1.7200475715591806e-01 1.9298993225469641e-01 8.5210657802734762e+00 0 0 0
5210 1 4.0054350311793714e+00 3.7679623189795022e+00 2.8239921288346590e+00 0 1 0
608 2 4.4814668638683974e+00 4.6816362526135897e+00 3.2351458438110586e-01 0 0 0
629 2 6.6918936653088608e+00 2.5707509013530787e+00 5.9482467493429390e+00 0 0 0
6620 1 6.7486686473900592e+00 9.6307742486715764e-01 9.1273177584798653e+00 1 1 0
4880 1 2.3391230385856043e+00 4.2501726021091750e+00 6.3593921081461167e+00 0 0 1
1766 2 1.3644254127032243e+00 -5.8675239110427901e-01 6.6559409355570054e+00 1 0 0
3372 1 1.4936622441706200e+00 1.6308871041102302e+00 9.7691395853714891e+00 0 1 1
569 2 5.3495978225104845e-01 -1.1289565469966669e+00 1.0567180569881355e+01 0 1 0
158 2 7.5934680178302549e-01 6.1419770096407609e+00 4.2792563536690773e+00 0 0 0
3615 1 1.4558844044698471e+00 2.6187310929686398e+00 2.3382294636617380e+00 0 0 1
6632 1 3.9696928360249550e-01 4.6101879119469471e+00 7.0868601957581996e+00 1 0 0
6834 1 5.5817165673938207e-01 2.0422733863047231e+00 4.5516286178682721e+00 1 1 0
3405 1 5.3714820657623918e-01 2.7465398307123658e+00 7.2398637837228144e+00 0 1 0
5237 1 1.3708413715909680e+00 6.8566041768742636e-01 8.9957821524113069e+00 0 1 0
3683 1 6.6089101477273147e+00 6.3337374400717605e+00 4.0519742150694480e+00 1 -1 1
2632 1 4.3324651332683389e-01 4.0343637491647586e+00 1.0688796738056020e+01 0 0 0
4951 1 4.2947794220564441e+00 1.5842684008127312e+00 1.0502017188194966e+01 1 0 0
1036 2 4.6005802386142669e+00 -1.0278556347335954e+00 1.8152491775596216e+00 0 1 0
1886 2 2.5790752233223452e-01 5.6035480708728302e+00 5.4060972500838500e-01 1 0 0
4922 1 2.1769967770038163e+00 5.2533059371051483e+00 2.7471428432404439e+00 1 -1 0
3882 1 3.8174251277352917e+00 1.7232432899570891e+00 8.5088989984195571e+00 0 0 1
4903 1 3.7610445163824182e+00 -4.6571748691298420e-01 1.5083858279811677e+00 0 0 0
5308 1 3.0378114668006662e+00 4.3398902888876751e+00 1.1224516857913017e+01 1 1 0
1834 2 1.5664689316413432e+00 8.5499320105085674e-01 1.1255175570519995e+01 1 0 0
4501 1 3.1468997057041546e+00 1.0404389102756730e+00 5.0351064097916955e+00 0 0 1
4553 1 2.2412558069730686e+00 -6.2170429153278017e-01 6.3644981749848695e+00 0 1 0
603 2 5.8640998209597912e+00 5.1949796432711235e+00 2.2745490820417595e+00 0 0 0
5637 1 6.8768913509670335e-02 3.4027940950326583e+00 8.5709762189395811e-01 0 1 0
6459 1 3.3797666523624708e+00 2.9797388891291812e+00 1.1514375151373923e+00 0 0 1
3079 1 6.3366138569994872e+00 5.0832165944168040e-01 1.0235708820469048e+01 0 1 0
3409 1 2.3334713365064133e+00 3.6106626715789094e+00 4.0715738648010911e+00 0 1 1
5450 1 1.1323901256377766e+00 5.3453735093821217e+00 1.1388752052829407e+01 0 1 0
38 2 4.2709368127660445e+00 4.4130744485170075e+00 3.5655730872870222e+00 0 0 0
8 2 4.4615677476767663e+00 3.1251954200299448e+00 5.3528436759802513e+00 0 0 0
6773 1 5.2562845236185627e+00 1.7395407628030015e+00 4.8218180519457787e+00 1 1 0
64 2 5.3120215551679308e+00 3.1467261331179834e+00 1.4713331586804674e+00 0 0 0
20 2 2.1779463126963212e+00 4.5233902634778245e+00 4.3235570239998520e+00 0 0 0
30 2 5.1796447152674929e+00 6.4860186900226973e+00 4.0098415252215966e+00 0 0 0
649 2 6.1727068561953402e+00 3.9699179647373839e+00 4.0917729432305769e+00 0 0 0
1756 2 2.8364656803380290e+00 4.9445870238347673e+00 2.1363607012539969e+00 1 0 0
71 2 3.2136697760109110e+00 6.5562686329503128e+00 3.5364123969336556e+00 0 0 0
5966 1 3.5302533182219609e+00 6.7093481447128358e+00 7.7128145466612352e-01 1 0 0
4599 1 5.3239687711807342e+00 4.8520692451098260e+00 8.4706411956211725e-01 0 1 0
5783 1 1.7021870102936636e+00 6.2089598257173106e+00 9.9367279762893688e+00 1 0 1
14 2 6.7203656061394668e+00 -1.1007397657344620e+00 5.1111279322744894e+00 0 0 0
2475 1 8.9797327194740417e-01 3.3284623812165073e+00 4.0046300658761425e+00 0 0 0
2552 1 4.3541013544770770e+00 2.7190743579251233e+00 4.2413760953744415e+00 0 0 1
4287 1 4.2524685750122826e+00 -3.4865705674252290e-01 6.7378161788560673e+00 0 1 1
3227 1 4.1001634207603868e+00 3.0552927943468227e+00 9.4103832494142825e+00 0 1 0
5323 1 4.6967322146444372e+00 2.7400910067867397e+00 5.1567062257673824e-01 1 0 1
6301 1 2.9153859458426288e+00 5.7554341731073251e+00 4.6996976482386525e+00 0 1 0
4729 1 6.5471340968502307e+00 2.8631805864234066e+00 1.2254959587706349e+00 0 0 1
2681 1 3.8773744152819729e+00 2.8400583068167284e+00 6.3067494177972101e+00 0 0 0
6721 1 1.8667556487573065e+00 6.0811829421952801e+00 4.4769622503638864e+00 1 1 0
6 2 6.7309154267576137e+00 4.8378617647186610e+00 2.8411228073318467e-01 0 0 0
6212 1 5.5841423291577650e+00 2.9969702871176374e+00 3.8946794774424238e+00 1 0 1
3202 1 5.6299272645805531e-01 -6.6658169022542291e-02 1.1064164144503145e+01 0 1 -1
3881 1 3.2774516503886537e+00 3.0424122508181419e+00 5.0195281367005320e+00 1 0 0
4624 1 6.6781350372807617e+00 1.0673510493879532e+00 1.0315006227686934e+00 0 0 0
3161 1 5.1199143847299933e+00 1.8298070579916330e+00 8.7999881035798193e+00 0 0 1
4794 1 5.0422894305110013e+00 5.8611453935290161e+00 5.2637648477570567e+00 1 0 1
3579 1 4.9345321677884368e-01 2.7441088577334627e-02 7.7801555643032092e+00 0 0 1
1042 2 2.6678624202227259e+00 -2.6891876600749098e-02 9.1184672965905511e-01 0 1 0
52 2 6.7696497101987250e+00 1.8663802643336420e+00 8.3349647038280317e+00 0 0 0
47 2 5.4249830961905836e+00 5.1468519101948571e+00 5.7820436313706294e+00 0 0 0
1852 2 7.6180692668471428e-01 2.1102846386458092e+00 5.9245058905806891e-02 1 0 1
699 2 6.1348042538060410e+00 7.9827878174890010e-02 6.1391667881901901e-01 0 0 1
6731 1 2.4547237657894843e+00 -9.4498145033712078e-01 9.6060986832077457e+00 1 1 0
4957 1 2.3144801711142073e+00 4.1651569017663741e+00 1.0004120700086144e+01 1 0 -1
3608 1 3.7696664045792421e+00 6.1084082827624471e+00 6.0705044225584901e+00 1 0 0
5820 1 6.2103235372695069e+00 5.0933994363386992e+00 4.3198613417753311e+00 0 0 0
2834 1 4.7192963050678385e+00 -4.7403270919617768e-01 2.7732710986561853e+00 0 0 0
6299 1 4.5722404784932582e+00 1.9783024014002129e+00 2.1994333779490112e+00 1 0 0
2625 1 5.8674968970206018e+00 4.5624403570381755e+00 8.2305356842246518e+00 0 0 0
5311 1 5.6737497429136399e+00 2.4790102993141323e+00 1.1538619201647936e+01 -1 1 0
4330 1 2.4777877785340210e+00 5.6308606461028798e+00 1.4062235533425662e+00 0 0 0
42 2 8.4830083106742649e-01 2.1513458762412765e+00 9.4266732320746627e+00 0 0 0
3112 1 3.1486555906707943e+00 5.9817107481636511e-01 9.5112208912548049e+00 0 1 1
4811 1 5.3017736567423226e+00 6.2304929898167494e-02 5.1643479017986804e+00 1 0 1
5996 1 6.4251522336820202e+00 4.8756596381584094e-01 3.7336832600169059e+00 0 0 1
6497 1 6.5279634575332564e+00 6.0954128400032621e+00 1.5992625470056745e+00 1 0 0
15 2 5.4841316582466892e-01 2.9193282894928032e+00 5.8353703967162973e+00 0 0 0
6445 1 2.4057725605504476e+00 3.8717772284443903e+00 7.4288341523460435e+00 1 1 -1
4874 1 2.3375805300970725e+00 -5.5628472022029207e-01 1.5538900340480490e+00 1 0 1
3620 1 5.8763159015070929e+00 -7.7406266454791972e-01 9.3779637115911303e+00 0 0 0
4892 1 5.2681466132637507e+00 1.8645575713691409e+00 2.7292931229883681e+00 0 0 1
35 2 3.1386096472911613e+00 2.3616041931970768e+00 8.5890363046374549e+00 0 0 0
2323 1 7.8487671678805282e-01 -1.2557683563931441e+00 9.0551072330927163e+00 0 0 0
3716 1 3.6129630114404510e+00 -6.6429751934914938e-01 1.0910738448758623e+01 0 0 -1
5885 1 1.6050714424222565e+00 8.1029216526781500e-01 4.7528683999939254e+00 0 0 0
5558 1 6.4295484086737593e+00 2.9643208186442020e+00 1.0344194545666983e+01 1 0 -1
6854 1 9.9456308414186190e-01 3.9069502504604223e+00 6.1468466214073878e+00 1 1 0
661 2 6.3596708496758039e+00 1.7657261871817385e+00 1.1039616626198960e+01 0 0 0
671 2 4.8098727976882953e+00 -7.1152979347119338e-01 1.1558614798708382e+01 0 0 0
157 2 6.8021567850481368e-01 6.0532319642782424e+00 7.7868839273025685e+00 0 0 0
77 2 1.9468814955277021e+00 4.1418545404081026e+00 8.3504376561862248e+00 0 0 0
6308 1 4.7365919639520202e+00 -1.8021120357465059e-01 8.4376614408647210e+00 1 0 1
6883 1 6.1373018763142984e-01 6.6134059093919459e+00 8.6047370198057802e+00 1 0 0
1749 2 3.1228122351238419e+00 6.2965577298129096e+00 6.3400374837811690e-02 1 0 0
2723 1 9.9086628713148128e-01 6.0189342809663495e+00 2.4214876826235954e+00 0 0 0
3904 1 1.1648694907208268e-01 8.9157679447871674e-01 4.6422097198594141e+00 0 1 1
492 2 2.7159301885148661e+00 -1.0528644836272227e+00 1.1006094818794173e+01 0 1 0
622 2 3.5895051185586562e+00 1.0034040928055838e+00 1.1005568465157925e+01 0 0 0
45 2 2.3109248287169724e+00 4.5524301348920382e-02 9.0069234069641784e+00 0 0 0
37 2 6.3614549384535080e+00 5.3922844728064212e-01 6.6522132132837619e+00 0 0 0
1760 2 1.2905980708327254e+00 1.6974943597772136e+00 7.5095943818607100e+00 1 0 0
451 2 3.3837507982374322e+00 5.5292521160436681e-01 7.1286663554376464e+00 0 1 0
53 2 4.4651514386189062e+00 1.1741366347702353e-01 9.3329247868786531e+00 0 0 0
4418 1 4.9651586209292562e+00 1.0118175734961228e+00 9.6179284978570330e+00 0 1 0
69 2 5.0080863547119812e+00 2.1991976069466426e+00 7.2787879307798296e+00 0 0 0
3017 1 5.8253590792719123e+00 -1.3186202735687895e+00 6.1525152995339214e+00 0 0 0
4083 1 1.1429140145769650e+00 3.4753847493507406e-01 3.1121400185175920e+00 0 1 0
4010 1 1.5105395897114102e-01 -5.5627054080595284e-01 6.0804657985535178e+00 0 0 1
3695 1 3.9993746063440367e+00 3.0529823933391222e+00 7.9912978186898496e+00 1 0 1
6292 1 3.5309592352335866e+00 1.1982469146828625e+00 6.3453547633469407e+00 1 0 0
5472 1 3.3565621234599212e+00 5.6718991468776387e+00 1.0623889081762920e+01 0 0 0
3066 1 2.3686369628736577e+00 1.9258388909828512e+00 7.8193065569147926e+00 0 1 1
188 2 3.8998840771957621e-01 6.8595843801574095e+00 1.1038741259013273e+01 0 0 0
4242 1 5.0580716631182314e+00 5.1458809821155782e+00 2.6488560004254182e+00 0 0 2
6072 1 1.9463358907181341e-01 5.5386417136428348e+00 4.9360791767643208e+00 1 0 0
4494 1 5.9590252248909428e+00 5.8601565310573509e+00 8.8453163130318142e+00 0 0 0
147 2 1.6529461395269014e+00 6.9363329247792809e+00 2.0281218410926476e+00 0 0 0
58 2 4.6286878516958513e-01 4.7461700648801619e+00 9.8909741182376631e+00 0 0 0
36 2 6.6464966319933483e+00 8.5089146856811793e-02 2.8875770172124948e+00 0 0 0
5896 1 1.3789470016625931e+00 7.1134891498476938e-01 7.0646159670081108e+00 1 0 -1
1791 2 2.5888312011424515e+00 5.1330508708611795e+00 1.0070772017508183e+01 1 0 0
4627 1 5.7043712245665956e+00 -1.1313267730511707e+00 4.1497128756279587e+00 0 0 0
3559 1 3.3034736064930370e+00 4.6969350933795102e+00 7.4905241773487985e+00 0 0 0
4070 1 2.5753601042975331e+00 8.6404432469322456e-01 1.1411379158893601e+01 0 1 -1
1750 2 2.7580405421475690e-01 5.3901775613901526e+00 2.4999245273355366e+00 1 0 0
3595 1 2.3632304822242896e+00 9.7967500891006409e-01 2.3241141614531817e+00 0 0 0
25 2 3.3153343643523372e+00 5.3386000662481852e+00 5.6522474324896601e+00 0 0 0
6524 1 1.7366181778934728e+00 -1.0713918048875049e+00 1.9007897600546635e+00 1 1 0
2347 1 2.2613772433788220e+00 5.4521968753762584e+00 5.9129366966023849e+00 0 0 0
3811 1 3.2594432247038321e+00 -1.1512303983645040e+00 6.3764508361767369e+00 0 0 0
4105 1 6.4041996049692598e+00 3.7798334944248140e+00 3.2118253405616177e+00 0 0 0
4136 1 4.3636672917365313e+00 5.7152352783470155e+00 1.6720629925416966e-01 0 0 0
3422 1 2.2662434037383896e+00 5.1342060583462779e+00 8.3959821023766974e+00 0 1 1
6444 1 6.5205664119478479e+00 3.0031814635770591e+00 8.5043756964534492e+00 0 0 0
5635 1 1.1928021299053138e+00 4.4125003821296831e+00 9.3270113067329827e+00 0 1 0
2438 1 5.5610959723577569e+00 6.4957389864677362e-02 7.0488395699414426e+00 0 0 0
2362 1 5.3333459839154678e+00 3.5962266149298676e+00 9.6839168887540374e+00 0 0 -1
101 2 4.8584541867973954e+00 4.8081855315330753e+00 1.0078047680451940e+01 0 0 0
6425 1 1.7558313303264177e+00 5.9457536816836010e+00 7.6395067180539824e+00 1 0 0
5133 1 4.9350921755787880e+00 5.4682017075841891e+00 1.1186817919251068e+01 0 0 1
2338 1 5.0956350736853775e+00 6.6194831238277629e+00 2.9700688047187369e+00 0 0 0
185 2 2.7487565320045908e+00 3.2139872820149398e+00 1.0855149430804589e+01 0 0 0
6724 1 3.8354877388895061e+00 6.0618595379841622e+00 2.1561635917737347e+00 1 1 1
2668 1 4.2779865396195387e+00 -1.1271810715391393e+00 4.7747111243517475e+00 0 0 0
4965 1 4.2733907663571404e+00 5.0615262720491581e+00 9.4590415384177717e+00 0 0 0
2761 1 1.5830361033149041e+00 -1.0410298045017519e+00 7.4632759962276500e+00 0 1 0
11 2 6.0918732336420316e+00 3.9140987778677356e+00 7.7535368017683339e+00 0 0 0
63 2 1.9851561339254205e+00 6.7325707400709653e+00 5.9045476446153664e+00 0 0 0
60 2 6.5805886061160308e+00 5.2697248429427610e+00 9.3719032585415452e+00 0 0 0
628 2 4.9313729482710125e+00 2.6119549258226242e+00 9.6160565105097735e+00 0 0 0
4116 1 5.8735841906959747e+00 5.4921409671098038e+00 6.5998288170186061e+00 0 1 0
6290 1 3.2000459855862973e+00 1.2743093376013350e+00 1.3553030272925624e+00 0 0 1
43 2 2.4619088391673483e+00 3.1201200599857613e+00 6.4258327349804398e+00 0 0 0
4024 1 4.9697043517622275e+00 4.3479815395809860e+00 7.3858687310634776e+00 1 0 1
61 2 5.3682061475356848e+00 6.2717696375513352e+00 7.9202468702719830e+00 0 0 0
21 2 4.9631676309145628e-01 4.8969952037107243e+00 6.0843328125714047e+00 0 0 0
1764 2 3.2716118967707808e+00 6.4734972525616845e+00 7.4864280958486011e+00 1 0 0
34 2 3.9843212648138082e+00 4.1926518898330745e+00 7.6061630532293290e+00 0 0 0
5186 1 4.2059474338390359e+00 6.1730668778359501e+00 7.7812622501600366e+00 1 0 0
2762 1 5.5869949659571638e+00 2.7764798632748358e+00 6.8853114570926897e+00 0 0 1
3642 1 6.4343707614993795e+00 1.1588983841209299e+00 7.4683854116456256e+00 0 0 0
2725 1 6.0697446151215955e+00 4.9205198106961836e+00 1.0136243599138346e+01 0 0 0
127 2 5.2750794625139656e+00 6.5696750555036854e+00 1.6698142685079390e-01 0 0 1
4097 1 5.1697408572589048e+00 9.7888415452078537e-01 1.2388364620682031e+00 0 1 1
4879 1 1.2740935046584281e+00 3.1751657116657288e+00 9.0900315433062193e+00 1 0 0
6185 1 2.6286513573273198e+00 6.4439193470362612e+00 6.8007611015393534e+00 0 0 1
2862 1 6.4449233419651861e+00 2.6832145672782453e+00 2.6696995839473274e+00 0 0 0
6832 1 1.7028362952571723e+00 1.7585748193570963e+00 6.0297975541939115e+00 1 1 1
17 2 4.1627134974471796e+00 7.0127117350461656e+00 2.1095047293191147e+00 0 0 0
6488 1 8.4272921460389061e-01 6.5371294922116263e-01 1.3120353713070447e+00 0 1 2
3961 1 3.4366046775518839e+00 6.8524311356825365e+00 9.3828854883190207e+00 0 0 0
6700 1 6.5336750138325108e+00 8.1244977823118658e-01 2.3533565495757500e+00 1 1 0
3780 1 1.3865474132032476e-01 4.9686108450625834e+00 1.5785809010908842e+00 0 1 0
3299 1 1.1756536380177343e+00 6.4524675309504254e+00 6.0950507405249743e+00 1 1 0
5959 1 4.3436463653612334e+00 6.8975660173645377e+00 4.9529393125409200e+00 1 -1 1
6051 1 1.5477565147221670e-01 6.7111826234171428e+00 4.2997036511793523e+00 1 1 1
5645 1 6.8933888946164590e+00 3.7347159877614153e+00 1.1584204769772507e+01 0 1 0
5935 1 1.8434960863409418e+00 2.2502698354969115e+00 2.2487976266745058e+01 1 0 0
83 2 3.5680819025838106e+00 8.7838389992390464e-01 1.2991444017113286e+01 0 0 0
84 2 5.2765987566181511e+00 1.2703549819808289e+00 1.4963172891894201e+01 0 0 0
1867 2 3.5051940365975018e+00 -3.4204667663594535e-02 1.4841421753056089e+01 1 0 0
82 2 2.9509867004045769e+00 2.1200435921457355e+00 1.5065787981812255e+01 0 0 0
105 2 4.7213520643831348e+00 2.7872526597117888e+00 1.6518904732082266e+01 0 0 0
41 2 1.3486157888095784e+00 1.0433088113393572e+00 1.3987982405979141e+01 0 0 0
48 2 4.0749160212610605e+00 6.8302482375424223e-01 1.7006397558869409e+01 0 0 0
78 2 2.6887336314747508e+00 2.3776143182205605e+00 1.7784439975376181e+01 0 0 0
539 2 5.1985900513152161e-01 2.6956458325745372e+00 1.4293402099314946e+01 0 1 0
3585 1 9.5904475865643646e-01 -9.4345467712774855e-02 2.1723727918391518e+01 0 1 -1
5939 1 3.2004505747398468e+00 -9.7299421400505925e-01 1.4511094098351965e+01 1 0 0
5482 1 7.8837374707427654e-01 4.0577048651884740e-01 1.5541654088562197e+01 0 1 -1
19 2 4.4564018969918404e+00 1.8695851724722590e+00 2.2999356429147774e+01 0 0 -1
5732 1 5.0170591627933598e+00 5.0683146164363646e-01 1.4422938154291295e+01 0 1 0
4302 1 3.6074248888983478e+00 -5.0835928048882040e-01 2.1844897306982812e+01 0 1 0
96 2 4.8103647366092162e+00 3.2257493304267708e+00 1.4413273177594469e+01 0 0 0
4230 1 1.5197317563798936e+00 -8.8999924873621361e-01 1.5858769560955707e+01 0 1 0
2336 1 3.5000870553220631e+00 6.6272590344447693e+00 1.3842292329108091e+01 0 0 -1
6874 1 6.2670017045829169e+00 -2.9976032551568399e-01 1.6100189119174015e+01 0 1 -1
6757 1 9.5582185196142577e-01 4.9198895805062328e+00 1.6942108632652086e+01 1 1 0
6029 1 9.1206180533463377e-01 4.8653478032434334e+00 2.0798150727694441e+01 1 0 1
5975 1 9.0633751099895843e-01 4.0149684974814512e+00 1.8920238329744869e+01 0 0 0
139 2 1.3786490645225205e+00 6.8896766325190306e+00 2.2345915282403968e+01 0 0 0
1832 2 1.0334288351405316e+00 2.9420554014337092e+00 1.6297649335975226e+01 1 0 0
120 2 1.9904703684574316e+00 2.9562707040927427e-01 1.6387465513937631e+01 0 0 0
2792 1 1.3971233542308801e+00 6.6332195214571295e+00 1.7077695784261813e+01 0 0 0
3982 1 4.0507436016788372e+00 3.3245165008559985e+00 1.3732348368624335e+01 0 0 0
93 2 3.4960130697690744e-01 2.6653045073265789e+00 1.1856340730807947e+01 0 0 0
2611 1 5.1402744213360512e+00 4.2506007449638412e+00 2.3174455502898564e+01 0 0 -1
3757 1 5.4072973019734576e+00 1.9242877141179355e+00 1.6989395841434341e+01 0 0 -1
6068 1 6.4121768928125276e+00 3.3478429212101934e+00 2.0056447089081058e+01 1 0 -1
3650 1 3.4448962368355502e+00 1.4143166639472771e+00 1.3877472542430823e+01 0 0 1
4498 1 1.8979119750399065e+00 1.5768579966282692e+00 1.7791979046097914e+01 0 1 0
1818 2 8.1288230211795084e-02 -2.8810891013068574e-01 1.4940684348819845e+01 1 0 0
4763 1 7.8876177538830994e-01 2.6082896043717585e+00 1.7649516718871109e+01 1 0 0
2218 2 1.1443031092636224e+00 -9.3400103023505232e-01 1.2729065920704615e+01 1 1 0
4200 1 6.1406476084896432e-02 6.8833617771486821e+00 1.9871675742580223e+01 0 0 0
2470 1 5.6777081584242017e+00 1.1986374876649926e+00 2.1203988605644273e+01 0 0 0
2831 1 1.8402112766606307e+00 2.4784740653405524e+00 1.6558173683479652e+01 1 1 0
2800 1 4.4669379799631930e+00 6.8608290093493274e+00 1.9380160746713639e+01 0 0 0
4812 1 3.6990110687161422e+00 2.0424830961918161e+00 1.5871373396465623e+01 0 0 0
4442 1 1.9800933107049643e+00 1.8025840357515164e+00 1.4461276564680064e+01 1 1 -1
2666 1 3.6344277278615915e+00 3.6067587672638117e+00 1.7322014661707840e+01 0 0 0
4615 1 1.5988033954987693e+00 -4.9951965579102187e-01 1.7063502976508119e+01 0 0 0
6118 1 3.5602844305416687e-01 1.1096735369758872e+00 1.6738165721602265e+01 0 0 -1
106 2 3.6419502996638666e+00 4.8395875862512652e+00 1.2373069166505720e+01 0 0 0
6248 1 3.2110169966055198e+00 1.5646591107084240e-01 1.6423037885392937e+01 1 0 0
3392 1 6.3782982134464499e+00 -1.0883763123318624e-01 1.4737383364324392e+01 -1 1 0
3340 1 6.8190563067719125e+00 5.5891873345627641e+00 1.9114214980276945e+01 -1 1 0
2529 1 3.3775806510107237e-01 1.0685467243025109e+00 1.4227092357200853e+01 0 0 0
4229 1 1.5005621323427267e+00 1.6436653267481871e-01 1.8462787377015861e+01 -1 1 0
4011 1 1.5129065786009146e+00 1.8246343038752344e+00 2.0705781483480653e+01 1 0 0
2516 1 5.0003751905829896e-01 3.8205766048602134e+00 1.3835912772356105e+01 0 0 0
107 2 2.4969800438022376e+00 2.8444749769061586e+00 1.3202197044961222e+01 0 0 0
6735 1 1.4213414266694830e+00 -8.1741700031521936e-01 2.0345466046910204e+01 1 1 0
4619 1 1.2070027322067882e+00 1.2801528698782594e-01 1.2319940601031416e+01 1 0 0
4162 1 1.7567744085918729e-01 3.1275335514548752e+00 2.0637446718145398e+01 0 1 0
74 2 2.6351354977211248e+00 4.4401879616858189e+00 1.7356188625706704e+01 0 0 0
1849 2 7.2762958270939238e-01 9.1562577142107537e-01 1.8082720146231413e+01 1 0 0
6568 1 6.5026438417242343e+00 4.9025329294315014e+00 1.5500200106250178e+01 0 0 0
6413 1 4.1765183284776281e-01 5.6501990846637651e-01 1.9047061955872692e+01 1 1 -1
5786 1 3.1343110966404564e-01 4.8877657882212180e+00 1.5191143709492398e+01 1 0 0
4408 1 6.4938411983507542e+00 6.9588088295926749e+00 1.2360781562835362e+01 -1 0 0
6345 1 2.3601467549867778e+00 4.9697238898467431e+00 1.2372156992898308e+01 1 0 0
4803 1 1.9409238554766124e+00 2.8362819758650542e+00 1.2433445201845469e+01 1 0 1
6187 1 6.8442158401278981e+00 2.1679011451572894e+00 2.2448728440517456e+01 1 1 0
3926 1 1.4801503303182695e+00 3.0301936286017339e+00 1.3799603928304839e+01 0 0 -1
6555 1 1.0243145560952627e-02 -8.5451627501417915e-01 1.7759432722050711e+01 1 1 0
1147 2 5.5250096070773083e+00 -9.8769407249407459e-01 1.6255573983718321e+01 0 1 0
76 2 2.3426032699492016e+00 4.5393670864216338e+00 1.5078347234173719e+01 0 0 0
16 2 5.4592043818650513e+00 4.9050377441861182e+00 1.3872587171617143e+01 0 0 0
267 2 5.4574108691753285e+00 6.3436181990724805e+00 1.5729063484239719e+01 0 0 0
67 2 4.3810237045422573e+00 4.6172849435687047e+00 1.5947286503993524e+01 0 0 0
125 2 2.4879584700961024e+00 4.8556863433769566e+00 2.1399130143379505e+01 0 0 0
197 2 4.5481764611086399e+00 2.7848487819712613e+00 1.2099895455499453e+01 0 0 0
4383 1 2.6698117102442738e+00 -8.8912544773677238e-01 2.0723305330424708e+01 0 1 0
246 2 1.3129104859721124e+00 4.9896816508903798e+00 1.2358044350553486e+01 0 0 0
2310 1 4.7273596289809099e+00 5.5512390107791711e+00 1.5730276106325285e+01 0 0 -1
215 2 5.9461582760760479e-01 5.7447804439947667e+00 1.6067619678655394e+01 0 0 0
230 2 2.3744797801446120e+00 6.3811365076007620e+00 1.4031949918896615e+01 0 0 0
5336 1 5.1111369262555835e+00 2.2177159089654688e+00 1.4541048263733883e+01 1 0 0
3627 1 3.6202485544214094e+00 4.3443303365072179e+00 1.5346158507450006e+01 -1 0 0
218 2 7.2634357145293060e-01 4.9498842752264665e+00 1.7932800409682123e+01 0 0 0
3100 1 2.1467936540150192e-02 2.4511672893651610e+00 2.2364073248716100e+01 0 1 0
72 2 6.9095805136418633e+00 4.1674389711570399e+00 1.5611876304703854e+01 0 0 0
4676 1 1.3128306842001142e-01 6.2180338158466713e+00 1.7622983729587570e+01 1 0 -1
95 2 2.8125229980977813e+00 6.1199378502860400e+00 1.8806098555184562e+01 0 0 0
4863 1 6.2887337819555382e+00 5.5173266983470342e+00 1.1945472773721360e+01 0 0 1
102 2 2.8245138621049830e+00 6.5688533666830926e+00 1.6269812155903750e+01 0 0 0
2580 1 5.7103905630502299e+00 1.8786981614419060e+00 1.8995564069548355e+01 0 0 0
4504 1 2.5811486480855961e+00 6.2680892709001235e+00 1.1832562909727637e+01 0 0 0
2511 1 6.7859401217859758e-02 5.0649708413925856e+00 1.9552702513058993e+01 0 -1 -1
10 2 3.4970272078004832e+00 -1.3503100946821274e+00 2.0588673727164228e+01 0 0 -1
2331 1 1.2731402825262161e+00 5.7479125470359360e+00 1.5265777956202292e+01 -1 0 0
3095 1 6.9528418477299940e+00 -1.1323817920413992e-01 1.7998123882544828e+01 0 0 0
6648 1 1.7408402202156732e+00 6.0129795551449421e+00 1.9251514703942892e+01 1 1 -1
1736 2 2.6755137950645103e+00 3.7439050888864305e+00 2.3108949121120734e+01 1 0 -1
5298 1 2.2870677408131748e+00 4.8762698665025281e+00 1.6532619573126308e+01 1 1 -1
5535 1 3.5958051962953390e+00 5.1248872885967875e+00 2.1493028662481024e+01 0 1 -1
4046 1 4.4736667415541600e+00 -1.0229605624524063e-01 1.7279534733073071e+01 0 0 0
4030 1 6.0359534784589668e+00 6.2962074766051046e+00 2.1751247092277218e+01 0 0 -1
4075 1 3.8713343562733149e+00 6.5583228891677949e+00 1.7596991780984620e+01 1 0 0
2583 1 4.8319318783647414e-01 6.5838278804009009e+00 2.2203264635706223e+01 0 0 0
2701 1 6.0823657057077369e+00 -1.0904408089510562e+00 1.3868420622444452e+01 0 1 -1
5198 1 5.1855376795069965e+00 2.8834727590610036e+00 1.3079582497207928e+01 0 1 0
4370 1 2.4299103895366065e+00 7.0394865872645891e+00 1.8321978178882635e+01 0 1 0
1866 2 2.9655746236857367e-01 7.2298419761287969e-01 2.0018218714979433e+01 1 0 0
3859 1 3.3216031828312165e+00 1.1157465906722006e+00 1.7335901121600283e+01 0 0 -1
66 2 6.2816250706501204e+00 4.3534452666711827e+00 1.1742892234573866e+01 0 0 0
6332 1 2.1012879819409211e+00 7.6054751096952788e-01 1.3368336631802237e+01 1 0 -1
4290 1 4.9406011581177287e+00 3.2386791811800739e+00 1.5514604098873612e+01 0 1 0
6561 1 2.0532652197017587e+00 2.8388089474522271e+00 2.0021849984183774e+01 1 1 -1
6106 1 4.0023638084334465e-04 6.0036235333198524e+00 1.3733689336066405e+01 1 0 0
2339 1 2.4549367246991394e+00 -3.7288290427423210e-02 1.4600283042714850e+01 0 0 0
5918 1 4.9737184856338654e+00 2.2389065199505618e+00 2.2354371410002468e+01 1 0 -1
1842 2 2.1632955662750281e-01 2.7517747589298978e+00 1.8696633274472727e+01 1 0 0
6623 1 6.8765841773882004e+00 5.7403747705332844e+00 1.3845066353936307e+01 2 1 0
5633 1 3.7885608074192030e+00 2.0149229655024308e+00 2.1176937082958229e+01 0 1 1
128 2 6.1177956673605962e+00 9.0294231641477607e-01 2.2007005748218784e+01 0 0 0
5202 1 5.9708280906324616e+00 1.3608753391852861e+00 1.5721402366762643e+01 0 1 0
2388 1 4.7306307001282679e+00 3.6883438758257618e+00 1.8930362651733031e+01 0 0 0
6614 1 1.4441844716999521e+00 7.5890237562697749e-01 2.0436582892073986e+01 0 1 0
6817 1 5.7412010536818228e+00 1.3437006598215224e+00 1.2265852539150050e+01 1 1 0
4924 1 4.6363895300945233e+00 -4.0734471302064268e-01 1.3545622934271233e+01 0 0 0
250 2 3.5235301928035581e+00 7.0040590204395485e+00 2.1144584251579300e+01 0 0 0
112 2 5.1905230126552047e+00 2.9075754436356744e+00 1.8654567325528372e+01 0 0 0
3228 1 5.6639656257177133e+00 4.6595432497828213e+00 1.4833733870272651e+01 0 1 -1
3448 1 3.5226198813258236e+00 5.0346725816628171e+00 2.0077904386456328e+01 0 1 0
705 2 5.6940323322712070e+00 -8.3306043598368718e-01 2.0659800353204826e+01 0 0 0
3624 1 4.1094316019436352e+00 1.4881094426459507e+00 2.0300916816595731e+01 0 0 -1
577 2 1.7416141483363761e+00 -4.9854777309521481e-03 2.1226216799171841e+01 0 1 0
3935 1 9.4942395990568473e-01 3.5158114352532746e+00 1.2232421329739008e+01 0 0 0
6140 1 3.0143243967789788e+00 4.0389520250840922e+00 2.0778842004837404e+01 1 0 -1
133 2 2.4378974903529218e+00 -6.0600631672707239e-02 1.8980417752524694e+01 0 0 0
542 2 3.9077045434956665e+00 7.1760895585048035e-01 2.1003742386567971e+01 0 1 0
113 2 2.2357774414023637e+00 1.9052871225848484e+00 1.9941760551951837e+01 0 0 0
2815 1 3.1832216738908143e+00 -1.1409113706559191e+00 1.6020362208222487e+01 0 0 1
114 2 2.5005195137953145e+00 1.5635954533610774e+00 2.2353235642865762e+01 0 0 0
2521 1 4.1831219954099312e+00 2.2759807116452930e+00 1.8247420846524580e+01 0 0 0
31 2 5.4015338530055752e+00 7.3144412548608750e-01 1.8936035264043895e+01 0 0 -1
1747 2 5.6050979403777514e+00 3.3859189025325565e+00 2.2341113297129947e+01 1 0 -1
4789 1 5.7740634189126752e+00 8.3277943326636406e-02 1.9397208526525617e+01 0 0 0
588 2 4.2006707758257376e+00 -3.3088019786571032e-01 2.2753454645387329e+01 0 0 -1
6772 1 2.6292504283876479e+00 6.7453856219341768e-01 1.9421646608581778e+01 0 1 0
4337 1 2.3323814776366474e+00 3.1157504767221234e+00 1.5190258924109811e+01 0 1 -1